<?xml version="1.0"?>
<VTKFile type="UnstructuredGrid"  version="0.1"  >
<UnstructuredGrid>
<Piece  NumberOfPoints="3507" NumberOfCells="14587">
<Points>
<DataArray  type="Float64"  NumberOfComponents="3"  format="ascii">-0.4000000000000015 -0.8660254037844385 1.5  0.4000000000000026 -0.8660254037844389 1.5  -0.4000000000000015 -0.8660254037844385 0.5  0.4000000000000004 -0.8660254037844389 0.5  0.04999999999999994 -0.08660254037844391 1.95  0.4552786404500036 -0.7885657368602906 1.544721359549996  -0.4552786404500042 -0.7885657368602893 1.544721359549996  -0.05000000000000005 -0.08660254037844385 1.95  -0.5499999999999998 -0.7794228634059955 1.5  -0.5500000000000003 -0.7794228634059946 0.5  0.4552786404500041 -0.7885657368602915 0.4552786404500047  -0.4552786404500051 -0.7885657368602909 0.4552786404500047  -0.05000000000000066 -0.08660254037844495 0.0500000000000006  0.04999999999999966 -0.08660254037844339 0.04999999999999971  0.5499999999999989 -0.7794228634059961 1.5  0.5499999999999989 -0.7794228634059961 0.5  0.09999999999999998 -1.224606353822377e-17 1.95  0.9105572809000075 0 1.544721359549996  0.9499999999999994 -0.08660254037844484 1.5  -0.9500000000000006 -0.0866025403784426 1.5  -0.9105572809000075 3.032764975485794e-16 1.544721359549996  -0.1 3.33066907387547e-17 1.95  0.05000000000000001 0.08660254037844388 1.95  -0.04999999999999998 0.08660254037844388 1.95  0.1 -1.224606353822377e-17 0.05000000000000002  -0.1000000000000001 3.330669073875473e-17 0.05000000000000004  -0.05000000000000004 0.08660254037844395 0.05000000000000004  0.04999999999999993 0.08660254037844373 0.04999999999999993  -0.9500000000000006 -0.0866025403784426 0.5  -0.9105572809000093 3.0327649754858e-16 0.4552786404500047  0.9105572809000093 0 0.4552786404500047  0.9500000000000005 -0.08660254037844295 0.5  0.4552786404500038 0.7885657368602895 1.544721359549996  0.5499999999999989 0.7794228634059965 1.5  0.9500000000000005 0.08660254037844292 1.5  -0.9500000000000006 0.08660254037844317 1.5  -0.455278640450005 0.7885657368602921 1.544721359549995  -0.5499999999999993 0.7794228634059959 1.5  0.4000000000000012 0.8660254037844386 1.5  -0.400000000000003 0.8660254037844387 1.5  -0.9499999999999984 0.08660254037844706 0.5  -0.5500000000000004 0.779422863405994 0.5  -0.4552786404500035 0.7885657368602895 0.4552786404500037  0.399999999999999 0.8660254037844386 0.5  0.4552786404500037 0.7885657368602894 0.4552786404500037  -0.3999999999999986 0.8660254037844387 0.5  0.9500000000000005 0.08660254037844292 0.5  0.5499999999999995 0.7794228634059955 0.5  -0.1333333333333335 -0.8660254037844386 1.5  0.1333333333333345 -0.8660254037844388 1.5  -0.4000000000000005 -0.8660254037844384 0.5526315789473684  -0.4000000000000005 -0.8660254037844384 0.6052631578947368  -0.4000000000000005 -0.8660254037844384 0.6578947368421053  -0.4000000000000005 -0.8660254037844384 0.7105263157894737  -0.4000000000000005 -0.8660254037844384 0.763157894736842  -0.4000000000000005 -0.8660254037844384 0.8157894736842105  -0.4000000000000005 -0.8660254037844384 0.868421052631579  -0.4000000000000005 -0.8660254037844384 0.9210526315789473  -0.4000000000000005 -0.8660254037844384 0.9736842105263157  -0.4000000000000005 -0.8660254037844384 1.026315789473684  -0.4000000000000005 -0.8660254037844384 1.078947368421053  -0.4000000000000005 -0.8660254037844384 1.131578947368421  -0.4000000000000005 -0.8660254037844384 1.184210526315789  -0.4000000000000005 -0.8660254037844384 1.236842105263158  -0.4000000000000005 -0.8660254037844384 1.289473684210526  -0.4000000000000005 -0.8660254037844384 1.342105263157895  -0.4000000000000005 -0.8660254037844384 1.394736842105263  -0.4000000000000005 -0.8660254037844384 1.447368421052631  -0.1333333333333345 -0.8660254037844386 0.5  0.133333333333333 -0.8660254037844388 0.5  0.3999999999999994 -0.8660254037844388 0.5526315789473684  0.3999999999999994 -0.8660254037844388 0.6052631578947368  0.3999999999999994 -0.8660254037844388 0.6578947368421053  0.3999999999999994 -0.8660254037844388 0.7105263157894737  0.3999999999999994 -0.8660254037844388 0.763157894736842  0.3999999999999994 -0.8660254037844388 0.8157894736842105  0.3999999999999994 -0.8660254037844388 0.868421052631579  0.3999999999999994 -0.8660254037844388 0.9210526315789473  0.3999999999999994 -0.8660254037844388 0.9736842105263157  0.3999999999999994 -0.8660254037844388 1.026315789473684  0.3999999999999994 -0.8660254037844388 1.078947368421053  0.3999999999999994 -0.8660254037844388 1.131578947368421  0.3999999999999994 -0.8660254037844388 1.184210526315789  0.3999999999999994 -0.8660254037844388 1.236842105263158  0.3999999999999994 -0.8660254037844388 1.289473684210526  0.3999999999999994 -0.8660254037844388 1.342105263157895  0.3999999999999994 -0.8660254037844388 1.394736842105263  0.3999999999999994 -0.8660254037844388 1.447368421052631  0.185092880150001 -0.3205902725390592 1.814907119849999  0.320185760300002 -0.5545780046996744 1.679814239699998  0.4325391074516465 -0.8020975461444813 1.536908765817145  0.4149349191647954 -0.8204957539189375 1.526286555605956  0.4038061642216076 -0.8423598281802021 1.513663326445633  -0.4038061642216086 -0.8423598281802018 1.513663326445633  -0.4149349191647963 -0.820495753918937 1.526286555605956  -0.4325391074516474 -0.8020975461444807 1.536908765817145  -0.1850928801500013 -0.3205902725390588 1.814907119849999  -0.3201857603000025 -0.5545780046996736 1.679814239699998  -0.02614428534733455 -0.09652189566972433 1.944273057552391  -7.608006934253821e-17 -0.1 1.942264973081037  0.02614428534733436 -0.09652189566972438 1.944273057552391  -0.402695512942018 -0.8429638167101945 1.5  -0.4106367359676591 -0.8211454857643924 1.5  -0.4233955556881024 -0.8017466428157847 1.5  -0.4402841408297215 -0.7858130845089342 1.5  -0.4603920233960844 -0.7742037930964111 1.5  -0.4826351822333071 -0.7675446284832176 1.5  -0.5058144828910478 -0.7661945879573115 1.5  -0.5286803232711094 -0.7702264525528895 1.5  -0.5500000000000005 -0.7794228634059945 0.5526315789473684  -0.5500000000000005 -0.7794228634059945 0.6052631578947368  -0.5500000000000005 -0.7794228634059945 0.6578947368421053  -0.5500000000000005 -0.7794228634059945 0.7105263157894737  -0.5500000000000005 -0.7794228634059945 0.763157894736842  -0.5500000000000005 -0.7794228634059945 0.8157894736842105  -0.5500000000000005 -0.7794228634059945 0.868421052631579  -0.5500000000000005 -0.7794228634059945 0.9210526315789473  -0.5500000000000005 -0.7794228634059945 0.9736842105263157  -0.5500000000000005 -0.7794228634059945 1.026315789473684  -0.5500000000000005 -0.7794228634059945 1.078947368421053  -0.5500000000000005 -0.7794228634059945 1.131578947368421  -0.5500000000000005 -0.7794228634059945 1.184210526315789  -0.5500000000000005 -0.7794228634059945 1.236842105263158  -0.5500000000000005 -0.7794228634059945 1.289473684210526  -0.5500000000000005 -0.7794228634059945 1.342105263157895  -0.5500000000000005 -0.7794228634059945 1.394736842105263  -0.5500000000000005 -0.7794228634059945 1.447368421052631  -0.402695512942018 -0.8429638167101945 0.5  -0.4106367359676591 -0.8211454857643923 0.5  -0.4233955556881025 -0.8017466428157846 0.5  -0.4402841408297216 -0.7858130845089342 0.5  -0.4603920233960845 -0.7742037930964111 0.5  -0.4826351822333072 -0.7675446284832176 0.5  -0.5058144828910479 -0.7661945879573115 0.5  -0.5286803232711095 -0.7702264525528895 0.5  0.4325391074516465 -0.8020975461444814 0.4630912341828544  0.4149349191647954 -0.8204957539189375 0.4737134443940433  0.4038061642216076 -0.8423598281802021 0.4863366735543664  -0.4038061642216086 -0.8423598281802018 0.4863366735543665  -0.4149349191647963 -0.8204957539189371 0.4737134443940434  -0.4325391074516474 -0.8020975461444808 0.4630912341828544  -0.3201857603000038 -0.554578004699676 0.3201857603000036  -0.1850928801500026 -0.320590272539061 0.1850928801500024  -0.02614428534733435 -0.0965218956697244 0.05572694244760847  8.842860173584666e-19 -0.1 0.05773502691896269  0.02614428534733444 -0.09652189566972436 0.05572694244760843  0.3201857603000029 -0.554578004699676 0.3201857603000033  0.1850928801500018 -0.3205902725390605 0.185092880150002  0.5286803232711085 -0.7702264525528901 1.5  0.5058144828910471 -0.7661945879573122 1.5  0.4826351822333065 -0.7675446284832182 1.5  0.4603920233960839 -0.7742037930964115 1.5  0.4402841408297209 -0.7858130845089345 1.5  0.4233955556881017 -0.8017466428157849 1.5  0.4106367359676582 -0.8211454857643927 1.5  0.402695512942017 -0.8429638167101949 1.5  0.5286803232711085 -0.7702264525528901 0.5  0.5058144828910471 -0.7661945879573122 0.5  0.4826351822333065 -0.7675446284832182 0.5  0.4603920233960839 -0.7742037930964115 0.5  0.4402841408297209 -0.7858130845089345 0.5  0.4233955556881017 -0.8017466428157849 0.5  0.4106367359676582 -0.8211454857643927 0.5  0.402695512942017 -0.8429638167101949 0.5  0.5499999999999993 -0.7794228634059951 0.5526315789473684  0.5499999999999993 -0.7794228634059951 0.6052631578947368  0.5499999999999993 -0.7794228634059951 0.6578947368421053  0.5499999999999993 -0.7794228634059951 0.7105263157894737  0.5499999999999993 -0.7794228634059951 0.763157894736842  0.5499999999999993 -0.7794228634059951 0.8157894736842105  0.5499999999999993 -0.7794228634059951 0.868421052631579  0.5499999999999993 -0.7794228634059951 0.9210526315789473  0.5499999999999993 -0.7794228634059951 0.9736842105263157  0.5499999999999993 -0.7794228634059951 1.026315789473684  0.5499999999999993 -0.7794228634059951 1.078947368421053  0.5499999999999993 -0.7794228634059951 1.131578947368421  0.5499999999999993 -0.7794228634059951 1.184210526315789  0.5499999999999993 -0.7794228634059951 1.236842105263158  0.5499999999999993 -0.7794228634059951 1.289473684210526  0.5499999999999993 -0.7794228634059951 1.342105263157895  0.5499999999999993 -0.7794228634059951 1.394736842105263  0.5499999999999993 -0.7794228634059951 1.447368421052631  0.3701857603000022 0 1.814907119849999  0.6403715206000045 0 1.67981423969
[...]
<PointData  Tensors="f_334"> 
<DataArray  type="Float64"  Name="f_334"  NumberOfComponents="9" format="ascii">2.8246682267388659e+00 4.7150413637861126e+00 5.9588164714224602e-02 4.7150413637861126e+00 1.0852766288536742e+01 1.3679782157661677e-01 5.9588164714224602e-02 1.3679782157661680e-01 7.6950025467108019e-01  2.1504097549217547e+00 -3.6711339101800422e+00 7.6519794086908106e-15 -3.6711339101800422e+00 8.4761226735730819e+00 2.6420982798385934e-01 7.6519794086908043e-15 2.6420982798385934e-01 1.0033746064524536e+00  2.8202601351262402e+00 4.7025363189290417e+00 -4.8993492464197985e-03 4.7025363189290417e+00 1.0838001749972804e+01 -9.4599757598556641e-02 -4.8993492464197985e-03 -9.4599757598556641e-02 7.6950025467107874e-01  2.6824284328133157e+00 -4.4767284457645937e+00 3.0846412676457990e-02 -4.4767284457645937e+00 1.0310756269260258e+01 -1.1499645055377231e-01 3.0846412676457990e-02 -1.1499645055377231e-01 8.0941312550306588e-01  1.9476194287584274e+00 -2.8373033457948487e+00 -4.5982857534459243e-02 -2.8373033457948487e+00 5.3583973545059527e+00 8.1523368613450956e-02 -4.5982857534459264e-02 8.1523368613450956e-02 1.3256419916148665e+00  2.5287488351947638e+00 -3.6205302475646142e+00 -1.4933388739689952e-02 -3.6205302475646142e+00 6.7424143623241086e+00 2.1192637689533983e-01 -1.4933388739689952e-02 2.1192637689533991e-01 1.1373977162086208e+00  2.4794903392525156e+00 3.5581809324447153e+00 5.3763903584301664e-02 3.5581809324447153e+00 6.6242592180463049e+00 2.6320426091021504e-01 5.3763903584301692e-02 2.6320426091021504e-01 1.1616028772316769e+00  7.8890529790878861e-01 7.6430827661430667e-01 4.1784687788100315e-09 7.6430827661430667e-01 1.6710158823903223e+00 7.2534808979308258e-09 4.1784687788100290e-09 7.2534808979308258e-09 1.4609994805712876e+00  4.0737875642510266e+00 4.9600375185665504e+00 2.4073343346340645e-01 4.9600375185665504e+00 7.5486510814266952e+00 1.8715043706176815e-01 2.4073343346340625e-01 1.8715043706176815e-01 9.1189956578829434e-01  4.6475974683359880e+00 5.6905719915239068e+00 -9.0127363081562051e-02 5.6905719915239068e+00 8.6973537242224257e+00 -7.3876658342393181e-02 -9.0127363081562148e-02 -7.3876658342393181e-02 7.8854789200110154e-01  3.2474314841648102e+00 -4.6513401660843945e+00 -1.2168974836233427e-02 -4.6513401660843945e+00 8.6291997389661521e+00 -4.6055708287857489e-02 -1.2168974836233427e-02 -4.6055708287857489e-02 8.8480984720092382e-01  3.1363151429453469e+00 4.4875701630366969e+00 -4.1467838015095057e-02 4.4875701630366969e+00 8.3175354287298049e+00 -2.3941467440728826e-02 -4.1467838015095057e-02 -2.3941467440728829e-02 9.1706432396984139e-01  2.1267345090703675e+00 3.1388749383820018e+00 -1.6204112760692727e-02 3.1388749383820018e+00 5.7411841135106840e+00 -2.8012837583536756e-02 -1.6204112760692727e-02 -2.8012837583536756e-02 9.6092549218174861e-01  1.8126840129335853e+00 -2.3212790350281636e+00 1.5178068319927556e-02 -2.3212790350281636e+00 4.2588948254967098e+00 -2.6320699040447194e-02 1.5178068319927556e-02 -2.6320699040447194e-02 9.6332719883646034e-01  4.0948254023292909e+00 -5.0438505359234957e+00 -1.1979049363013766e-01 -5.0438505359234957e+00 7.7977355723386363e+00 3.8566149158806612e-01 -1.1979049363013766e-01 3.8566149158806595e-01 8.9672788847089047e-01  4.6018964751950016e+00 -5.6411323883161719e+00 9.3412560439157966e-02 -5.6411323883161719e+00 8.6222458416500061e+00 -6.2777552170255296e-02 9.3412560439157966e-02 -6.2777552170255269e-02 7.9664792693652309e-01  5.6197894949777485e+00 1.3573021787926109e-01 -8.0114218140129229e-02 1.3573021787926109e-01 3.0519050519500840e-01 -4.6253965409119670e-02 -8.0114218140129229e-02 -4.6253965409119670e-02 1.3007710543776714e+00  8.8285226562299250e+00 -1.3702257151959626e-02 -1.8364769090683175e-01 -1.3702257151959626e-02 4.4656485319294092e-01 9.3344293450434462e-02 -1.8364769090683175e-01 9.3344293450434448e-02 1.1366635636574134e+00  1.1589186432615504e+01 -1.0565630270438109e+00 -2.7807032154853867e-01 -1.0565630270438109e+00 7.0757328929386620e-01 1.8031814864624096e-01 -2.7807032154853861e-01 1.8031814864624104e-01 8.6281168277304576e-01  1.3632117198612656e+01 1.2005169215750449e+00 2.6290991933079622e-01 1.2005169215750449e+00 7.9388471401296001e-01 1.0415683642676475e-01 2.6290991933079622e-01 1.0415683642676472e-01 7.3378441586886445e-01  8.5435882562548215e+00 9.4200974409717388e-03 1.5343426583318528e-01 9.4200974409716400e-03 4.3100317941350358e-01 8.2899815753179285e-02 1.5343426583318528e-01 8.2899815753179409e-02 1.1733860430841301e+00  5.7870326688660416e+00 -1.1620376925227628e-01 7.1466497685920588e-02 -1.1620376925227628e-01 2.2963317615585876e-01 -4.3476278577793598e-02 7.1466497685920505e-02 -4.3476278577793598e-02 1.3150213162082369e+00  1.6321112651722951e+00 2.3363535996252804e+00 -8.0552341005798292e-02 2.3363535996252804e+00 4.2285300175986809e+00 -4.2719847998987107e-02 -8.0552341005798292e-02 -4.2719847998987120e-02 1.3012572719613502e+00  1.3805905540304173e+00 -2.3122960803507207e+00 7.3166082186470624e-02 -2.3122960803507207e+00 4.2446459483709127e+00 -4.2242457245909172e-02 7.3166082186470624e-02 -4.2242457245909172e-02 1.3146673262849877e+00  7.6361202402571555e+00 -1.8099036534759738e-01 2.1739206485995338e-02 -1.8099036534759738e-01 4.1295573739542429e-01 -1.2551136716658242e-02 2.1739206485995338e-02 -1.2551136716658241e-02 9.5652158702804024e-01  7.3014119170155150e+00 2.0215769431777122e-01 -2.5900003672605542e-02 2.0215769431777122e-01 1.7096406360656352e-01 1.6022220439561273e-03 -2.5900003672605552e-02 1.6022220439561273e-03 9.6655450164210199e-01  1.9016829734934444e+00 -3.1793580535224923e+00 -1.8853265102170794e-02 -3.1793580535224923e+00 5.8110201362655332e+00 1.0884937681841731e-02 -1.8853265102170794e-02 1.0884937681841731e-02 9.6229346979568853e-01  2.0808137370055895e+00 3.2515949332261500e+00 -3.2781525569569723e-18 3.2515949332261500e+00 5.5297628223380633e+00 1.9409595312629726e-02 -3.2781525569569731e-18 1.9409595312629705e-02 9.6638159476420304e-01  1.2451054896876954e+01 1.0822118592016494e+00 -8.7321779986560419e-02 1.0822118592016494e+00 7.2951962482332555e-01 -7.0163838947461185e-02 -8.7321779986560502e-02 -7.0163838947461185e-02 7.9789791976039026e-01  1.1047975184669614e+01 5.5442245127170645e-03 -4.6999254457368925e-02 5.5442245127170645e-03 5.5125710968437969e-01 -2.7135032212674329e-02 -4.6999254457368925e-02 -2.7135032212674329e-02 9.0600149108528427e-01  1.1071589722310806e+01 -7.3581081199927513e-03 5.2835486582408643e-02 -7.3581081199927513e-03 5.5188916805093469e-01 -2.7477640743040016e-02 5.2835486582408657e-02 -2.7477640743040016e-02 9.0458037274210745e-01  1.1574114240452118e+01 -1.0021511349204102e+00 8.3408145103567297e-02 -1.0021511349204102e+00 6.7361848881053910e-01 -2.5625172655163880e-02 8.3408145103567297e-02 -2.5625172655163887e-02 8.5813115495300551e-01  2.5339320375965233e+00 3.6268727433593293e+00 -4.9836353114072690e-03 3.6268727433593293e+00 6.7509850771048194e+00 -1.9655253105650772e-01 -4.9836353114072716e-03 -1.9655253105650772e-01 1.1350660155484891e+00  4.8644370062334970e+00 5.9468670475025593e+00 -2.1640182014397547e-01 5.9468670475025593e+00 9.0623720063560551e+00 -1.9123486190686578e-01 -2.1640182014397547e-01 -1.9123486190686578e-01 7.6039013734108774e-01  1.2984859870993819e+01 1.1621919361479591e+00 -2.5479479458813148e-01 1.1621919361479591e+00 7.7381278237583451e-01 -1.4100006973308235e-01 -2.5479479458813181e-01 -1.4100006973308227e-01 7.6950025467107774e-01  9.8439289271806540e+00 -8.0151998019213555e-01 3.9708101202657908e-01 -8.0151998019213555e-01 5.7063201494290816e-01 9.3706723216521806e-02 3.9708101202657875e-01 9.3706723216521834e-02 1.0244438430489953e+00  2.5074854848532069e+00 -3.5707923734571758e+00 2.0179980401397299e-01 -3.5707923734571758e+00 6.5909756196049951e+00 -1.7975588652479230e-01 2.0179980401397299e-01 -1.7975588652479235e-01 1.1620510394790897e+00  3.9451615913633575e+00 -4.8641862614992313e+00 1.1110839335435804e-01 -4.8641862614992313e+00 7.5583494482499471e+00 -4.3291903283374084e-01 1.1110839335435804e-01 -4.3291903283374084e-01 9.3024728366291687e-01  2.6173307565597659e+00 4.3707084048554226e+00 -1.2292926400466095e-01 4.3707084048554226e+00 1.0022970345135841e+01 -2.1613057385333082e-01 -1.2292926400466096e-01 -2.1613057385333082e-01 8.3602844199624049e-01  2.2408792820040619e+00 -3.7375288155366140e+00 -2.3417628228249057e-15 -3.7375288155366140e+00 8.6788389030080708e+00 -2.8359300328585663e-01 -2.3417628228249041e-15 -2.8359300328585663e-01 9.6980200029574681e-01  1.2332865940299182e+01 -1.0663877315384493e+00 -1.1225902838455885e-01 -1.0663877315384493e+00 7.1433660757825113e-01 3.6667301207820552e-02 -1.1225902838455894e-01 3.6667301207820552e-02 8.0664665216048292e-01  4.7411991703922070e+00 -5.8083401931252752e+00 -6.6242624444952602e-02 -5.8083401931252752e+00 8.8806042925643283e+00 4.5935782109657354e-02 -6.6242624444952602e-02 4.5935782109657354e-02 7.7153022925989234e-01  3.1640565136488652e+00 -4.5286364067063563e+00 -4.6619450266897171e-02 -4.5286364067063563e+00 8.3944275183579151e+00 2.8088977085695032e-02 -4.6619450266897171e-02 2.8088977085695032e-02 9.0870237614552996e-01  2.5541784767737230e+00 4.2611383607228479e+00 1.5616496348841501e-03 4.2611383607228479e+00 9.7994153636088726e+00 8.5679953005971310e-02 1.5616496348841492e-03 8.5679953005971157e-02 8.5203299367052976e-01  3.1350705842758857e+00 4.4856847001660967e+00 1.5973188280991271e-02 4.4856847001660975e+00 8.3123770803101777e+00 7.4344409030363087e-02 1.5973188280991282e-02 7.4344409030363129e-02 9.1772367227580542e-01  2.8201484639843262e+00 -4.7040400047308690e+00 8.4734543017917288e-03 -4.7040400047308690e+00 1.0830083593772626e+01 3.5639003207267789e-02 8.4734543017917323e-03 3.5639003207267789e-02 7.6950025467107896e-01  1.2439422480693027e+01 1.0896411269812569e+00 9.5449829551352228e-02 1.0896411269812569e+00 6.6739874802608201e-01 5.5107984785578622e-02 9.5449829551352172e-02 5.5107984785578587e-02 8.0910034089731697e-01  4.5856881487454082e+00 5.6125953047265567e+00 9.0186768870899950e-02 5.6125953047265567e+00 8.5787254269029027e+00 6.2772068523718486e-02 9.0186768870899950e-02 6.2772068523718486e-02 7.9918592255397658e-01  6.9681920876029235e-01 1.6970106200781088e+00 -1.2824357551303171e-02 1.6970106200781088e+00 1.0985806298553278e+01 3.1750692394388269e-01 -1.2824357551303171e-02 3.1750692394388269e-01 9.2651299400763798e-01  6.9082205761311533e-01 -1.8557150823331130e+00 -1.0988366579618210e-02 -1.8557150823331130e+00 1.2559968079624328e+01 3.9255530406479883e-01 -1.0988366579618210e-02 3.9255530406479883e-01 7.9784750546390248e-01  2.8200920833527259e+00 4.7022769891182525e+00 -4.8993492464195001e-03 4.7022769891182525e+00 1.0831709009497649e+01 -5.9610033645833886e-02 -4.8993492464194993e-03 -5.9610033645833886e-02 7.6950025467107952e-01  2.8200920833526193e+00 4.7022769891180856e+00 -4.8993492464193380e-03 4.7022769891180856e+00 1.0831709009497267e+01 -5.9610033645831832e-02 -4.8993492464193371e-03 -5.9610033645831832e-02 7.6950025467105276e-01  2.8196920954083646e+00 4.7070123471596510e+00 -4.8993492464194464e-03 4.7070123471596510e+00 1.0830967987077882e+01 -4.3981670404380842e-02 -4.8993492464194524e-03 -4.3981670404380876e-02 7.6950025467107852e-01  2.7542185327298094e+00 4.6009014627307723e+00 6.2760407773668437e-03 4.6009014627307723e+00 1.0569074296410793e+01 -1.1766501626388825e-02 6.2760407773668437e-03 -1.1766501626388823e-02 7.8805419607298988e-01  2.8203146298077715e+00 4.7017272655903586e+00 1.5590538101458939e-02 4.7017272655903586e+00 1.0827120734831226e+01 5.8627793485836951e-03 1.5590538101458939e-02 5.8627793485836951e-03 7.6950025467105321e-01  2.8207747321316021e+00 4.7123137949722365e+00 1.5590538101459673e-02 4.7123137949722365e+00 1.0824006036814961e+01 9.5967003372474276e-03 1.5590538101459673e-02 9.5967003372474276e-03 7.6950025467108119e-01  2.8204024500283222e+00 4.7021288867325941e+00 1.5590538101459075e-02 4.7021288867325941e+00 1.0827157575386808e+01 1.0885552473409757e-02 1.5590538101459075e-02 1.0885552473409763e-02 7.6950025467105254e-01  2.8211876954735438e+00 4.7028926650651224e+00 3.0101090984953543e-02 4.7028926650651224e+00 1.0828894191142432e+01 4.0049826480445846e-02 3.0101090984953543e-02 4.0049826480445846e-02 7.6950025467105143e-01  2.8227954710118821e+00 4.7042529050588646e+00 4.6260525277848963e-02 4.7042529050588646e+00 1.0830038710721171e+01 5.0679466139675167e-02 4.6260525277848963e-02 5.0679466139675167e-02 7.6950025467105343e-01  2.8227907636241132e+00 4.7043778140895247e+00 4.6260525277849983e-02 4.7043778140895247e+00 1.0830159997136171e+01 5.0760932094073841e-02 4.6260525277850011e-02 5.0760932094073841e-02 7.6950025467107541e-01  2.8227907636240164e+00 4.7043778140893568e+00 4.6260525277848477e-02 4.7043778140893568e+00 1.0830159997135720e+01 5.0760932094071995e-02 4.6260525277848470e-02 5.0760932094071995e-02 7.6950025467105210e-01  2.8262488150593801e+00 4.7101991060223840e+00 6.9228791440205537e-02 4.7101991060223840e+00 1.0839425676451107e+01 9.8666295314777497e-02 6.9228791440205537e-02 9.8666295314777497e-02 7.6950025467107641e-01  2.8262488150592855e+00 4.7101991060222259e+00 6.9228791440203080e-02 4.7101991060222259e+00 1.0839425676450730e+01 9.8666295314774194e-02 6.9228791440203052e-02 9.8666295314774194e-02 7.6950025467104943e-01  2.8263130635984139e+00 4.7143070644672447e+00 6.9228791440205800e-02 4.7143070644672447e+00 1.0852898369006592e+01 1.4189220871794422e-01 6.9228791440205703e-02 1.4189220871794420e-01 7.6950025467107375e-01  2.8263130635983198e+00 4.7143070644670724e+00 6.9228791440203274e-02 4.7143070644670724e+00 1.0852898369006191e+01 1.4189220871793942e-01 6.9228791440203302e-02 1.4189220871793937e-01 7.6950025467105276e-01  2.8276598546505922e+00 4.7263976060787352e+00 6.1719955295528275e-02 4.7263976060787352e+00 1.0882075012516035e+01 1.7906803976384830e-01 6.1719955295528199e-02 1.7906803976384819e-01 7.6866607346256643e-01  2.8246849100729019e+00 4.7177476243091832e+00 5.9588164714224352e-02 4.7177476243091832e+00 1.0867474175890541e+01 1.7277125978046098e-01 5.9588164714224352e-02 1.7277125978046098e-01 7.6950025467107686e-01  2.8246682267387637e+00 4.7150413637859465e+00 5.9588164714222694e-02 4.7150413637859465e+00 1.0852766288536351e+01 1.3679782157661199e-01 5.9588164714222694e-02 1.3679782157661202e-01 7.6950025467105421e-01  7.0251039661662085e-01 1.8633580420100448e+00 3.7159922504213801e-02 1.8633580420100448e+00 1.2617507779428280e+01 -1.7745970568458735e-02 3.7159922504213808e-02 -1.7745970568458735e-02 7.9760025391642475e-01  6.7989826015315225e-01 -1.9026885552278947e+00 -1.9964781611599997e-02 -1.9026885552278947e+00 1.2687137152992694e+01 -1.5018480573554744e-02 -1.9964781611600008e-02 -1.5018480573554744e-02 7.9461261193805177e-01  2.8201340496719238e+00 -4.7035152219177236e+00 -8.0190535941176821e-03 -4.7035152219177236e+00 1.0838691958043572e+01 -8.8910465164895799e-02 -8.0190535941176908e-03 -8.8910465164895827e-02 7.6950025467105543e-01  2.8201193063318541e+00 -4.7038952924149546e+00 -8.0190535941176005e-03 -4.7038952924149546e+00 1.0831202006590427e+01 -4.0677269845692345e-02 -8.0190535941176058e-03 -4.0677269845692365e-02 7.6950025467105543e-01  2.8201076407193151e+00 -4.7011948720176120e+00 -8.2351630125445593e-03 -4.7011948720176120e+00 1.0826964063557968e+01 -1.1959053505412048e-02 -8.2351630125445593e-03 -1.1959053505412048e-02 7.6950025467105476e-01  2.8201296396798590e+00 -4.7017251615225133e+00 -8.6173330081601041e-03 -4.7017251615225133e+00 1.0827060153490793e+01 -5.8384655240564039e-04 -8.6173330081601041e-03 -5.8384655240564039e-04 7.6950025467105465e-01  2.8202632882359944e+00 -4.7010223551002097e+00 -1.5381179689635373e-02 -4.7010223551002097e+00 1.0826697099490033e+01 1.0841993832210428e-02 -1.5381179689635371e-02 1.0841993832210428e-02 7.6950025467105365e-01  2.8203233175534206e+00 -4.7018655352207732e+00 -1.5381179689635482e-02 -4.7018655352207732e+00 1.0827338020200308e+01 1.7348817880952945e-02 -1.5381179689635482e-02 1.7348817880952945e-02 7.6950025467105476e-01  2.8207009607207456e+00 -4.7017484287891866e+00 -2.3055002975497937e-02 -4.7017484287891866e+00 1.0827068063447989e+01 1.4099038083995791e-02 -2.3055002975497937e-02 1.4099038083995791e-02 7.6950025467108107e-01  2.8217691886619054e+00 -4.7035793390718057e+00 -3.4099218622715109e-02 -4.7035793390718057e+00 1.0829562336090344e+01 5.3099058220379983e-02 -3.4099218622715109e-02 5.3099058220379983e-02 7.6950025467107963e-01  2.8217691886618179e+00 -4.7035793390716369e+00 -3.4099218622713909e-02 -4.7035793390716369e+00 1.0829562336089927e+01 5.3099058220378047e-02 -3.4099218622713909e-02 5.3099058220378047e-02 7.6950025467105410e-01  2.8217708953721310e+00 -4.7044917760047404e+00 -3.4099218622714381e-02 -4.7044917760047404e+00 1.0832931862623946e+01 7.3595697866812484e-02 -3.4099218622714381e-02 7.3595697866812360e-02 7.6950025467105387e-01  2.8241401095277330e+00 -4.7069710339547539e+00 -5.4657218766767220e-02 -4.7069710339547539e+00 1.0834151777453425e+01 7.9447059200875081e-02 -5.4657218766767240e-02 7.9447059200875081e-02 7.6950025467107996e-01  2.8241401095276526e+00 -4.7069710339546020e+00 -5.4657218766765360e-02 -4.7069710339546020e+00 1.0834151777453089e+01 7.9447059200872416e-02 -5.4657218766765353e-02 7.9447059200872416e-02 7.6950025467105265e-01  2.8263293066890571e+00 -4.7101231190707544e+00 -6.8603593476659799e-02 -4.7101231190707562e+00 1.0836748552952040e+01 8.8437431613131737e-02 -6.8603593476659813e-02 8.8437431613131723e-02 7.6950025467107974e-01  2.8263293066889736e+00 -4.7101231190706239e+00 -6.8603593476657232e-02 -4.7101231190706301e+00 1.0836748552951626e+01 8.8437431613128822e-02 -6.8603593476657287e-02 8.8437431613128809e-02 7.6950025467105398e-01  2.8281705244792374e+00 -4.7179920980664640e+00 -7.8220733235523532e-02 -4.7179920980664622e+00 1.0858413952792032e+01 1.5674262462304694e-01 -7.8220733235523532e-02 1.5674262462304694e-01 7.6950025467107785e-01  2.8277193568374712e+00 -4.7259278801309037e+00 -7.8220733235524129e-02 -4.7259278801309037e+00 1.0878071671897663e+01 1.9608962155137605e-01 -7.8220733235524115e-02 1.9608962155137605e-01 7.6950025467108207e-01  2.8280134698248358e+00 -4.7215774148043188e+00 -7.8220733235523046e-02 -4.7215774148043144e+00 1.0875899583102075e+01 1.9384696846329208e-01 -7.8220733235523046e-02 1.9384696846329208e-01 7.6950025467108019e-01  2.8280134698247434e+00 -4.7215774148041625e+00 -7.8220733235520049e-02 -4.7215774148041652e+00 1.0875899583101704e+01 1.9384696846328522e-01 -7.8220733235520049e-02 1.9384696846328522e-01 7.6950025467105498e-01  2.2911400176298304e+00 -3.5756565576856651e+00 -1.8124646786105129e-09 -3.5756565576856651e+00 6.0893581628918767e+00 4.9734873759409069e-02 -1.8124646786105129e-09 4.9734873759409069e-02 1.3748561634802903e+00  2.0966590688654754e+00 -3.1277017870083204e+00 -4.8606769079860442e-10 -3.1277017870083204e+00 5.7082183980287269e+00 8.4189387131019189e-10 -4.8606769079860432e-10 8.4189387131019189e-10 1.4609994858193658e+00  2.6504678435163509e+00 -4.0113396708802274e+00 -1.6455854424171099e-08 -4.0113396708802274e+00 7.9412584330780094e+00 2.6447099387130629e-01 -1.6455854424171099e-08 2.6447099387130629e-01 1.0029222671548996e+00  2.4382100378308649e+00 -3.8464603515795552e+00 -1.9399803672978107e-08 -3.8464603515795552e+00 8.1380341296770471e+00 2.6420983011552512e-01 -1.9399803672978094e-08 2.6420983011552512e-01 1.0033746078947254e+00  2.2785573753226727e+00 -3.7144366742200634e+00 -1.9370042897315702e-08 -3.7144366742200634e+00 8.2884016553431703e+00 2.6420983013002419e-01 -1.9370042897315686e-08 2.6420983013002419e-01 1.0033746079321124e+00  2.5879472871350035e+00 4.2226373547791107e+00 8.8134837345013484e-02 4.2226373547791107e+00 9.3862766593920863e+00 2.2103272164600501e-01 8.8134837345013511e-02 2.2103272164600501e-01 8.8192784111185962e-01  2.4557863911977531e+00 3.8570925352911165e+00 -2.461283354928920