<?xml version="1.0"?>
<VTKFile type="UnstructuredGrid"  version="0.1"  >
<UnstructuredGrid>
<Piece  NumberOfPoints="721" NumberOfCells="2735">
<Points>
<DataArray  type="Float64"  NumberOfComponents="3"  format="ascii">-0.4000000000000004 -0.8660254037844385 1.5  0.3999999999999995 -0.8660254037844389 1.5  -0.4000000000000004 -0.8660254037844385 0.5  0.3999999999999995 -0.8660254037844389 0.5  0.04999999999999998 -0.08660254037844389 1.95  0.4749999999999994 -0.8227241335952171 1.525  -0.4750000000000004 -0.8227241335952163 1.525  -0.05000000000000003 -0.08660254037844387 1.95  -0.4750000000000004 -0.8227241335952165 0.475  -0.5500000000000004 -0.7794228634059945 0.5  -0.5500000000000005 -0.7794228634059944 1.5  -0.05 -0.0866025403784438 0.04999999999999977  0.05 -0.08660254037844391 0.05000000000000004  0.4749999999999995 -0.8227241335952171 0.475  0.5499999999999995 -0.7794228634059951 1.5  0.5499999999999996 -0.7794228634059949 0.5  0.1 0 1.95  0.95 0 1.525  0.95 -0.08660254037844395 1.5  -0.95 -0.08660254037844367 1.5  -0.95 3.164135620181696e-16 1.525  -0.1 1.665334536937735e-17 1.95  -0.95 3.164135620181696e-16 0.475  -0.95 -0.08660254037844367 0.5  -0.1 1.665334536937736e-17 0.04999999999999993  0.1 0 0.04999999999999993  0.95 0 0.475  0.95 -0.08660254037844395 0.5  0.05 0.08660254037844387 1.95  0.475 0.8227241335952167 1.525  0.5499999999999998 0.779422863405995 1.5  0.95 0.08660254037844395 1.5  0.95 0.08660254037844392 0.5  -0.95 0.08660254037844439 0.5  -0.95 0.08660254037844439 1.5  -0.05 0.08660254037844388 1.95  -0.4749999999999998 0.8227241335952168 1.525  -0.5499999999999998 0.779422863405995 1.5  -0.4749999999999999 0.8227241335952168 0.475  -0.5499999999999998 0.7794228634059949 0.5  -0.05000000000000002 0.08660254037844391 0.04999999999999993  0.05000000000000002 0.08660254037844391 0.04999999999999982  0.475 0.8227241335952167 0.475  0.5499999999999998 0.779422863405995 0.5  -0.3999999999999998 0.8660254037844387 1.5  0.4000000000000002 0.8660254037844386 1.5  0.4000000000000003 0.8660254037844386 0.5  -0.3999999999999998 0.8660254037844387 0.5  -0.2 -0.8660254037844386 1.5  -2.220446049250313e-16 -0.8660254037844387 1.5  0.1999999999999996 -0.8660254037844388 1.5  -0.4000000000000007 -0.8660254037844384 0.7  -0.4000000000000007 -0.8660254037844384 0.8999999999999999  -0.4000000000000007 -0.8660254037844384 1.1  -0.4000000000000007 -0.8660254037844384 1.3  -0.2 -0.8660254037844386 0.5  -2.220446049250313e-16 -0.8660254037844387 0.5  0.1999999999999996 -0.8660254037844388 0.5  0.3999999999999997 -0.8660254037844388 1.3  0.3999999999999997 -0.8660254037844388 1.1  0.3999999999999997 -0.8660254037844388 0.8999999999999999  0.3999999999999997 -0.8660254037844388 0.7  0.1562500000000001 -0.2706329386826378 1.84375  0.2625000000000004 -0.4546633369868318 1.737499999999999  0.3687499999999999 -0.6386937352910245 1.63125  -0.1562500000000004 -0.2706329386826375 1.84375  -0.2625000000000009 -0.4546633369868313 1.737499999999999  -0.3687500000000006 -0.6386937352910237 1.63125  -0.5500000000000007 -0.7794228634059943 0.6999999999999998  -0.5500000000000007 -0.7794228634059943 0.9  -0.5500000000000007 -0.7794228634059943 1.1  -0.5500000000000007 -0.7794228634059943 1.3  -0.36875 -0.6386937352910227 0.3687499999999996  -0.2624999999999995 -0.4546633369868289 0.2624999999999993  -0.1562499999999997 -0.2706329386826363 0.1562499999999996  0.3687499999999992 -0.6386937352910232 0.3687499999999997  0.262499999999999 -0.4546633369868293 0.2624999999999993  0.1562499999999994 -0.2706329386826366 0.1562499999999997  0.5499999999999992 -0.7794228634059952 1.3  0.5499999999999992 -0.7794228634059952 1.1  0.5499999999999992 -0.7794228634059952 0.8999999999999999  0.5499999999999992 -0.7794228634059952 0.7  0.3125000000000006 0 1.84375  0.5250000000000014 0 1.737499999999999  0.7375000000000006 0 1.63125  0.6499999999999998 -0.6062177826491071 1.5  0.75 -0.4330127018922189 1.5  0.85 -0.2598076211353315 1.5  -0.8499999999999999 -0.2598076211353317 1.5  -0.75 -0.4330127018922193 1.5  -0.6500000000000001 -0.606217782649107 1.5  -0.3125000000000006 1.040834085586086e-16 1.84375  -0.5250000000000014 1.748601263784626e-16 1.737499999999999  -0.7375000000000006 2.456368441983161e-16 1.63125  -0.05 -0.08660254037844387 1.777272727272728  -0.05 -0.08660254037844387 1.604545454545455  -0.05 -0.08660254037844387 1.431818181818183  -0.05 -0.08660254037844387 1.25909090909091  -0.05 -0.08660254037844387 1.086363636363637  -0.05 -0.08660254037844387 0.9136363636363642  -0.05 -0.08660254037844387 0.7409090909090914  -0.05 -0.08660254037844387 0.5681818181818186  -0.05 -0.08660254037844387 0.3954545454545457  -0.05 -0.08660254037844387 0.2227272727272729  0.05 -0.08660254037844387 1.777272727272728  0.05 -0.08660254037844387 1.604545454545455  0.05 -0.08660254037844387 1.431818181818183  0.05 -0.08660254037844387 1.25909090909091  0.05 -0.08660254037844387 1.086363636363637  0.05 -0.08660254037844387 0.9136363636363642  0.05 -0.08660254037844387 0.7409090909090914  0.05 -0.08660254037844387 0.5681818181818186  0.05 -0.08660254037844387 0.3954545454545457  0.05 -0.08660254037844387 0.2227272727272729  -0.7374999999999994 2.456368441983157e-16 0.3687499999999997  -0.5249999999999986 1.748601263784617e-16 0.2624999999999993  -0.3124999999999993 1.040834085586082e-16 0.1562499999999997  -0.8499999999999999 -0.2598076211353318 0.5  -0.75 -0.4330127018922193 0.5  -0.6500000000000001 -0.606217782649107 0.5  -0.9499999999999998 -0.0866025403784437 1.3  -0.9499999999999998 -0.0866025403784437 1.1  -0.9499999999999998 -0.0866025403784437 0.9  -0.9499999999999998 -0.0866025403784437 0.6999999999999998  0.7374999999999994 0 0.3687499999999997  0.5249999999999986 0 0.2624999999999993  0.3124999999999993 0 0.1562499999999997  0.6499999999999999 -0.6062177826491069 0.5  0.7500000000000001 -0.4330127018922189 0.5  0.8500000000000001 -0.2598076211353314 0.5  0.95 -0.08660254037844364 0.7  0.95 -0.08660254037844364 0.8999999999999999  0.95 -0.08660254037844364 1.1  0.95 -0.08660254037844364 1.3  0.1562500000000003 0.2706329386826375 1.84375  0.2625000000000007 0.4546633369868314 1.737499999999999  0.3687500000000003 0.6386937352910239 1.63125  0.8499999999999998 0.259807621135332 1.5  0.7499999999999996 0.4330127018922201 1.5  0.6499999999999997 0.6062177826491076 1.5  0.9500000000000001 0.086602540378444 0.7  0.9500000000000001 0.086602540378444 0.8999999999999999  0.9500000000000001 0.086602540378444 1.1  0.9500000000000001 0.086602540378444 1.3  0.1 0 1.777272727272728  0.1 0 1.604545454545455  0.1 0 1.431818181818183  0.1 0 1.25909090909091  0.1 0 1.086363636363637  0.1 0 0.9136363636363642  0.1 0 0.7409090909090914  0.1 0 0.5681818181818186  0.1 0 0.3954545454545457  0.1 0 0.2227272727272729  -0.95 0.08660254037844389 0.7  -0.95 0.08660254037844389 0.8999999999999999  -0.95 0.08660254037844389 1.1  -0.95 0.08660254037844389 1.3  -0.1562500000000002 0.2706329386826376 1.84375  -0.2625000000000006 0.4546633369868315 1.737499999999999  -0.3687500000000001 0.638693735291024 1.63125  -0.65 0.606217782649107 1.5  -0.75 0.4330127018922195 1.5  -0.85 0.259807621135332 1.5  -0.1 0 1.777272727272728  -0.1 0 1.604545454545455  -0.1 0 1.431818181818183  -0.1 0 1.25909090909091  -0.1 0 1.086363636363637  -0.1 0 0.9136363636363642  -0.1 0 0.7409090909090914  -0.1 0 0.5681818181818186  -0.1 0 0.3954545454545457  -0.1 0 0.2227272727272729  -0.3687499999999996 0.638693735291023 0.3687499999999997  -0.2624999999999992 0.4546633369868291 0.2624999999999993  -0.1562499999999996 0.2706329386826365 0.1562499999999997  -0.6500000000000001 0.6062177826491069 0.5  -0.75 0.4330127018922194 0.5  -0.8500000000000001 0.2598076211353318 0.5  0.3687499999999997 0.6386937352910229 0.3687499999999997  0.2624999999999993 0.4546633369868291 0.2624999999999993  0.1562499999999997 0.2706329386826365 0.1562499999999997  0.8499999999999998 0.259807621135332 0.5  0.7499999999999996 0.4330127018922201 0.5  0.6499999999999997 0.6062177826491076 0.5  0.1999999999999998 0.8660254037844386 1.5  0 0.8660254037844387 1.5  -0.2 0.8660254037844387 1.5  0.4000000000000006 0.8660254037844386 0.7  0.4000000000000006 0.8660254037844386 0.8999999999999999  0.4000000000000006 0.8660254037844386 1.1  0.4000000000000006 0.8660254037844386 1.3  0.5499999999999996 0.7794228634059952 1.3  0.5499999999999996 0.7794228634059952 1.1  0.5499999999999996 0.7794228634059952 0.8999999999999999  0.5499999999999996 0.7794228634059952 0.7  0.05 0.08660254037844387 1.777272727272728  0.05 0.08660254037844387 1.604545454545455  0.05 0.08660254037844387 1.431818181818183  0.05 0.08660254037844387 1.25909090909091  0.05 0.08660254037844387 1.086363636363637  0.05 0.08660254037844387 0.9136363636363642  0.05 0.08660254037844387 0.7409090909090914  0.05 0.08660254037844387 0.5681818181818186  0.05 0.08660254037844387 0.3954545454545457  0.05 0.08660254037844387 0.2227272727272729  -0.5499999999999999 0.7794228634059949 1.3  -0.5499999999999999 0.7794228634059949 1.1  -0.5499999999999999 0.7794228634059949 0.8999999999999999  -0.5499999999999999 0.7794228634059949 0.7  -0.4000000000000005 0.8660254037844384 1.3  -0.4000000000000005 0.8660254037844384 1.1  -0.4000000000000005 0.8660254037844384 0.8999999999999999  -0.4000000000000005 0.8660254037844384 0.7  -0.05 0.08660254037844387 1.777272727272728  -0.05 0.08660254037844387 1.604545454545455  -0.05 0.08660254037844387 1.431818181818183  -0.05 0.08660254037844387 1.25909090909091  -0.05 0.08660254037844387 1.086363636363637  -0.05 0.08660254037844387 0.9136363636363642  -0.05 0.08660254037844387 0.7409090909090914  -0.05 0.08660254037844387 0.5681818181818186  -0.05 0.08660254037844387 0.3954545454545457  -0.05 0.08660254037844387 0.2227272727272729  0.1999999999999998 0.8660254037844386 0.5  0 0.8660254037844387 0.5  -0.2 0.8660254037844387 0.5  -0.2199570827433485 -0.8660254037844385 1  0.2267949192431121 -0.8660254037844387 1  -0.1126478612665627 -0.86602540378
[...]
<PointData  Tensors="f_328"> 
<DataArray  type="Float64"  Name="f_328"  NumberOfComponents="9" format="ascii">2.1490155956313304e+00 3.6496209422622474e+00 -3.7251974170919202e-16 3.6496209422622474e+00 8.4343285352206010e+00 -7.9337764074601976e-16 -3.7251974170919202e-16 -7.9337764074601877e-16 1.0000000000000262e+00  2.1439148418617986e+00 -3.7005839096549189e+00 -6.7250917152429572e-16 -3.7005839096549189e+00 8.3592526965279816e+00 2.3919778989597128e-15 -6.7250917152429523e-16 2.3919778989597128e-15 1.0000000000000295e+00  2.1425229392564198e+00 3.6992390808999138e+00 1.2438077523925189e-15 3.6992390808999138e+00 8.3686398175014656e+00 7.9479282165589943e-16 1.2438077523925193e-15 7.9479282165589973e-16 1.0000000000000246e+00  2.1439148418618017e+00 -3.7005839096549198e+00 1.3719156729680768e-16 -3.7005839096549198e+00 8.3592526965279674e+00 -1.7957022234761968e-15 1.3719156729680743e-16 -1.7957022234761972e-15 1.0000000000000289e+00  1.9793060213475486e+00 -3.5183590249205010e+00 1.2514445204890075e-16 -3.5183590249205010e+00 6.1293156760284919e+00 -1.9472490725013865e-16 1.2514445204890075e-16 -1.9472490725013865e-16 1.0000000000000255e+00  2.9011597757484218e+00 -4.1873118528945668e+00 4.0944974603857919e-15 -4.1873118528945668e+00 7.7362510264932407e+00 -8.7302664711643780e-15 4.0944974603857927e-15 -8.7302664711643749e-15 1.0000000000000275e+00  2.8574732621759997e+00 4.1216126260120243e+00 -1.0642285129115998e-15 4.1216126260120243e+00 7.6509864218222967e+00 -1.1617097572536138e-15 -1.0642285129115980e-15 -1.1617097572536138e-15 1.0000000000000251e+00  1.7022648432917296e+00 2.2551902929158962e+00 -1.3964413962334759e-16 2.2551902929158962e+00 4.3065657461827245e+00 -1.6359083275088534e-16 -1.3964413962334759e-16 -1.6359083275088534e-16 1.0000000000000284e+00  2.8975196096926759e+00 4.1816359599936153e+00 -4.7001658688240947e-15 4.1816359599936153e+00 7.7283554485083323e+00 -7.2751363272819734e-15 -4.7001658688240884e-15 -7.2751363272819766e-15 1.0000000000000260e+00  3.6006185582632395e+00 4.5416121924489872e+00 -2.9047869960124967e-16 4.5416121924489872e+00 6.9025489801253528e+00 -2.3298923174918468e-15 -2.9047869960125002e-16 -2.3298923174918448e-15 1.0000000000000286e+00  3.6618701419909674e+00 4.4916570786274939e+00 -1.4203337076705826e-15 4.4916570786274939e+00 6.8240034637915068e+00 -1.4414966700376297e-15 -1.4203337076705832e-15 -1.4414966700376273e-15 9.9999999999998945e-01  1.7022648432917313e+00 2.2551902929159064e+00 1.8972056022738699e-16 2.2551902929159064e+00 4.3065657461827342e+00 2.4590113367016452e-16 1.8972056022738699e-16 2.4590113367016452e-16 1.0000000000000278e+00  1.9793060213475517e+00 -3.5183590249205063e+00 -5.1859270324927387e-18 -3.5183590249205046e+00 6.1293156760285123e+00 4.3880539048125234e-17 -5.1859270324927441e-18 4.3880539048125234e-17 1.0000000000000258e+00  2.9011597757484080e+00 -4.1873118528945588e+00 5.8486838121733334e-15 -4.1873118528945588e+00 7.7362510264932487e+00 -8.4522418997656420e-15 5.8486838121733334e-15 -8.4522418997656420e-15 1.0000000000000293e+00  3.6516794794703995e+00 -4.5337955870974671e+00 6.2864514783739429e-16 -4.5337955870974671e+00 6.9236550717589296e+00 -6.6618444856749151e-16 6.2864514783739409e-16 -6.6618444856749121e-16 1.0000000000000273e+00  3.6006185582632164e+00 -4.5416121924489774e+00 2.1661183754979926e-15 -4.5416121924489774e+00 6.9025489801253608e+00 -4.8645595494729238e-15 2.1661183754979926e-15 -4.8645595494729230e-15 1.0000000000000264e+00  5.8977543045179734e+00 -3.0636186143511057e-03 2.6203133011962857e-17 -3.0636186143511057e-03 3.9947817278957598e-01 6.3254752121572062e-18 2.6203133011962857e-17 6.3254752121572062e-18 1.0000000000000269e+00  1.0153796651981413e+01 6.6823459735303912e-11 4.2533114404622782e-15 6.6823459735303912e-11 4.8361415026025084e-01 -1.2932655373971678e-16 4.2533114404622782e-15 -1.2932655373971678e-16 1.0000000000000269e+00  1.0010217907457799e+01 -8.4102828279385777e-01 -6.2629486755040819e-16 -8.4102828279385777e-01 4.9294963093079525e-01 3.1067236567397608e-16 -6.2629486755040720e-16 3.1067236567397608e-16 1.0000000000000278e+00  1.0015745616671188e+01 8.4636815129503551e-01 4.1065652206413889e-15 8.4636815129503551e-01 4.9541714008575416e-01 2.0491503012217179e-16 4.1065652206413882e-15 2.0491503012217152e-16 1.0000000000000275e+00  1.0004876739445582e+01 6.0442501223715479e-03 2.1133797875762916e-15 6.0442501223715479e-03 4.9460057412559316e-01 -5.1767956059165302e-16 2.1133797875762920e-15 -5.1767956059165253e-16 1.0000000000000295e+00  8.1388015575737054e+00 3.7827380991943368e-02 3.1039175937056317e-17 3.7827380991943368e-02 -3.0179860197616773e-02 -3.6726865105753687e-17 3.1039175937056317e-17 -3.6726865105753687e-17 1.0000000000000246e+00  1.0142049459537455e+01 9.9529896652614052e-04 1.9384472157837257e-15 9.9529896652614052e-04 4.8382559866357344e-01 1.3194016442014492e-17 1.9384472157837253e-15 1.3194016442014531e-17 1.0000000000000275e+00  1.0015745616671190e+01 8.4636815129503828e-01 -2.2603126363821535e-15 8.4636815129503828e-01 4.9541714008575510e-01 3.5528468648712234e-16 -2.2603126363821515e-15 3.5528468648712249e-16 1.0000000000000258e+00  8.1388015575737143e+00 3.7827380991945568e-02 -1.1663730844702133e-16 3.7827380991943917e-02 -3.0179860197616218e-02 5.7306204076176155e-17 -1.1663730844702133e-16 5.7306204076176155e-17 1.0000000000000246e+00  8.1388015575737622e+00 -3.7827380991949745e-02 4.1712559483179946e-17 -3.7827380991952500e-02 -3.0179860197606250e-02 -4.5098776699682733e-17 4.1712559483179959e-17 -4.5098776699682733e-17 1.0000000000000264e+00  1.0048079212075288e+01 4.2705074571623022e-02 1.1502322483477844e-15 4.2705074571623022e-02 4.6081574564025923e-01 -1.6544835688115098e-15 1.1502322483477846e-15 -1.6544835688115098e-15 1.0000000000000318e+00  9.9489707446457505e+00 -8.7479170905472403e-01 -7.8288127194387326e-16 -8.7479170905472403e-01 5.7292014915706380e-01 -1.3551000844758592e-15 -7.8288127194387375e-16 -1.3551000844758594e-15 9.9999999999999845e-01  1.7767003772692085e+00 2.3823552128563938e+00 -9.5251748989830824e-17 2.3823552128563952e+00 4.5205321000383254e+00 -1.8551229489903183e-16 -9.5251748989830861e-17 -1.8551229489903183e-16 1.0000000000000271e+00  2.8366609932101645e+00 4.1319348800209648e+00 -2.0251033718431770e-15 4.1319348800209648e+00 7.6805473903521531e+00 -5.7731325022255781e-15 -2.0251033718431738e-15 -5.7731325022255710e-15 1.0000000000000315e+00  3.6838287458312351e+00 4.5115755185448077e+00 -1.1763119828982178e-15 4.5115755185448077e+00 6.8539076769063385e+00 -3.6978837174226748e-15 -1.1763119828982211e-15 -3.6978837174226796e-15 9.9999999999999356e-01  1.0010217907457815e+01 8.4102828279386432e-01 2.0712193986085545e-15 8.4102828279386432e-01 4.9294963093079947e-01 3.3665400746543796e-16 2.0712193986085553e-15 3.3665400746543870e-16 1.0000000000000269e+00  1.0010217907457822e+01 8.4102828279386277e-01 -3.5804725455607120e-15 8.4102828279386277e-01 4.9294963093079847e-01 -4.9372440324778370e-16 -3.5804725455607144e-15 -4.9372440324778330e-16 1.0000000000000266e+00  1.0010217907457800e+01 -8.4102828279386244e-01 -5.0075514348592404e-16 -8.4102828279386244e-01 4.9294963093079819e-01 2.5248333603191191e-16 -5.0075514348592424e-16 2.5248333603191186e-16 1.0000000000000275e+00  9.9557978105105249e+00 -8.9499733240630863e-01 3.0426216899114884e-15 -8.9499733240630863e-01 5.4761896079975281e-01 -7.6328606562322589e-16 3.0426216899114884e-15 -7.6328606562322609e-16 9.9999999999999500e-01  2.1174685364724462e+00 -3.6518853452519018e+00 2.0239710260585865e-16 -3.6518853452519018e+00 6.1889562592989238e+00 -2.9925985477289220e-16 2.0239710260585865e-16 -2.9925985477289220e-16 1.0000000000000284e+00  2.8414067538241401e+00 -4.1334891835706635e+00 -7.0589728549300956e-16 -4.1334891835706635e+00 7.6805992856243872e+00 8.2954515730467343e-16 -7.0589728549301054e-16 8.2954515730467343e-16 1.0000000000000249e+00  3.6881319183611088e+00 -4.5187601074963455e+00 -1.0401743779310337e-15 -4.5187601074963455e+00 6.8586251942363035e+00 1.1266565395852068e-15 -1.0401743779310331e-15 1.1266565395852060e-15 9.9999999999999256e-01  2.8992435180714211e+00 -4.1826312589601491e+00 -3.8688605434191608e-15 -4.1826312589601491e+00 7.7266315401295893e+00 6.3404757457648985e-15 -3.8688605434191561e-15 6.3404757457648985e-15 1.0000000000000240e+00  3.6084755792076777e+00 -4.5456072321952448e+00 8.1974090502674891e-16 -4.5456072321952448e+00 6.9026871775492760e+00 -2.8263800471707095e-16 8.1974090502674891e-16 -2.8263800471707061e-16 1.0000000000000253e+00  1.7024384364267364e+00 -2.2552905169591377e+00 -3.1990011004228106e-17 -2.2552905169591377e+00 4.3063921530477511e+00 1.3347039063906050e-17 -3.1990011004228087e-17 1.3347039063906053e-17 1.0000000000000295e+00  1.7901146409535436e+00 2.3548543132468316e+00 -2.3634914988499577e-17 2.3548543132468316e+00 4.3796406772539145e+00 3.3158123768826983e-17 -2.3634914988499571e-17 3.3158123768826983e-17 1.0000000000000326e+00  2.8880693486640925e+00 4.1715570428170796e+00 3.8461805881217896e-15 4.1715570428170796e+00 7.6198620186648407e+00 9.8503099444421702e-15 3.8461805881217928e-15 9.8503099444421717e-15 1.0000000000000338e+00  3.6006185582632368e+00 4.5416121924489792e+00 8.4583839374462140e-16 4.5416121924489792e+00 6.9025489801253705e+00 2.1695535395568117e-15 8.4583839374462120e-16 2.1695535395568089e-15 1.0000000000000262e+00  2.1617568362160684e+00 -3.6884619592106662e+00 -2.8647510537056383e-16 -3.6884619592106662e+00 8.3699001795110934e+00 -6.1782599057665412e-16 -2.8647510537056373e-16 -6.1782599057665284e-16 1.0000000000000333e+00  2.1439148418618688e+00 3.7005839096551325e+00 5.2203190587023011e-16 3.7005839096551325e+00 8.3592526965267453e+00 1.2646910542315578e-15 5.2203190587022991e-16 1.2646910542315576e-15 1.0000000000000253e+00  2.1626424204082033e+00 3.6216043381255987e+00 2.5265890993022380e-15 3.6216043381255987e+00 8.3516775243044918e+00 8.6064561281719282e-15 2.5265890993022392e-15 8.6064561281719361e-15 9.9999999999999556e-01  2.1439148418618625e+00 -3.7005839096551294e+00 5.9447975562720466e-16 -3.7005839096551294e+00 8.3592526965267613e+00 -5.4030162051745166e-16 5.9447975562720466e-16 -5.4030162051745127e-16 1.0000000000000282e+00  9.4170493690465551e-01 2.1533588623942963e+00 4.1337226432995292e-16 2.1533588623942963e+00 9.5622325945728015e+00 2.2329681016033168e-15 4.1337226432995332e-16 2.2329681016033164e-15 1.0000000000000280e+00  3.3441337258770409e-01 -5.1007861362501961e-02 -7.1584091226970943e-17 -5.1007861362501961e-02 1.0289587958562469e+01 2.5701187151665828e-15 -7.1584091226971301e-17 2.5701187151665825e-15 9.9999999999999234e-01  9.1859690715108222e-01 -2.1221117689115983e+00 -6.4973297444102407e-16 -2.1221117689115983e+00 9.5580654030145933e+00 4.0631013037341692e-15 -6.4973297444102407e-16 4.0631013037341668e-15 9.9999999999999534e-01  2.1617244448309130e+00 3.7556473289076857e+00 4.1178631220259215e-16 3.7556473289076857e+00 8.3868087163656071e+00 6.2708025083514730e-16 4.1178631220259190e-16 6.2708025083514700e-16 1.0000000000000266e+00  2.1681100863510219e+00 3.6352479528071933e+00 -2.1437552608040476e-17 3.6352479528071933e+00 8.3559562553648075e+00 -6.2840735120700691e-17 -2.1437552608040476e-17 -6.2840735120700691e-17 9.9999999999999056e-01  2.1732967625368809e+00 3.6462381521258660e+00 -5.3817979736303170e-16 3.6462381521258660e+00 8.3711724316913010e+00 -1.6642103347436929e-17 -5.3817979736303160e-16 -1.6642103347436824e-17 1.0000000000000300e+00  2.1681100863510188e+00 3.6352479528071928e+00 -5.5980014855541520e-17 3.6352479528071928e+00 8.3559562553647933e+00 -1.0396310136592359e-16 -5.5980014855541520e-17 -1.0396310136592359e-16 9.9999999999998990e-01  9.2065115186699098e-01 2.1256792257721608e+00 5.1730995653041976e-16 2.1256792257721608e+00 9.5521553677073143e+00 -8.3591872747282780e-16 5.1730995653041957e-16 -8.3591872747282800e-16 9.9999999999999689e-01  4.0657354502748211e-01 -1.3278304279492662e-03 -4.2910098187304637e-16 -1.3278304279492662e-03 1.0073839043590780e+01 -1.6825322712604516e-15 -4.2910098187304637e-16 -1.6825322712604523e-15 1.0000000000000320e+00  9.7821023332809853e-01 -2.1740063993240293e+00 3.7661838985186433e-16 -2.1740063993240293e+00 9.7161220023061432e+00 -4.1708361867005297e-15 3.7661838985186468e-16 -4.1708361867005297e-15 1.0000000000000289e+00  2.1680229717359341e+00 -3.6331853349381009e+00 -5.1114846087629767e-16 -3.6331853349381009e+00 8.3526021452118240e+00 2.7320690172714205e-15 -5.1114846087629737e-16 2.7320690172714189e-15 9.9999999999999334e-01  2.1008309690608056e+00 -3.6665786765710013e+00 -6.7840615923382098e-17 -3.6665786765710013e+00 8.4225807808702484e+00 1.3611492334653299e-15 -6.7840615923381888e-17 1.3611492334653291e-15 1.0000000000000249e+00  2.1678636903044608e+00 -3.6380489165978669e+00 -3.2913462931959873e-16 -3.6380489165978669e+00 8.3606830828079630e+00 1.3762109111110248e-15 -3.2913462931959873e-16 1.3762109111110248e-15 1.0000000000000306e+00  2.1725724935160216e+00 -3.6859943047992703e+00 -1.5779163851482036e-15 -3.6859943047992703e+00 8.4868740983829252e+00 3.4594559346411676e-15 -1.5779163851482059e-15 3.4594559346411676e-15 1.0000000000000251e+00  2.7489197294677545e+00 -4.0743900763537155e+00 4.0667378098951593e-16 -4.0743900763537155e+00 7.5614206499701808e+00 -7.4002316439905362e-16 4.0667378098951593e-16 -7.4002316439905362e-16 1.0000000000000269e+00  5.3365725205501375e+00 -8.6634212706144371e+00 -8.3762986747771425e-17 -8.6634212706144371e+00 1.5247059140057393e+01 1.4755885581840647e-16 -8.3762986747771376e-17 1.4755885581840647e-16 1.0000000000000298e+00  2.8420047332657434e+00 -4.0754767881194010e+00 3.9659903375589909e-15 -4.0754767881194010e+00 7.5479599744776333e+00 -8.5176602158384475e-15 3.9659903375589917e-15 -8.5176602158384428e-15 9.9999999999999245e-01  3.4886187052749063e+00 5.5291776363775176e+00 -5.6574493495559314e-16 5.5291776363775176e+00 9.8738238259337177e+00 -9.3712075762600336e-16 -5.6574493495559324e-16 -9.3712075762600336e-16 9.9999999999999278e-01  2.7076602110259773e+00 4.6736705085575201e+00 2.1251463267529991e-16 4.6736705085575201e+00 8.0227694861603851e+00 5.0477840190619557e-17 2.1251463267529991e-16 5.0477840190619699e-17 1.0000000000000275e+00  2.8860859318465608e+00 4.2502168890458858e+00 -2.8672457255121676e-16 4.2502168890458858e+00 7.7396123341024632e+00 -2.7261360803186042e-16 -2.8672457255121676e-16 -2.7261360803186042e-16 1.0000000000000253e+00  3.6599581834722508e+00 4.4941104097902009e+00 -3.3689401422194178e-15 4.4941104097902009e+00 6.8604089444705050e+00 -3.5456673995717940e-15 -3.3689401422194178e-15 -3.5456673995717948e-15 9.9999999999999178e-01  3.6622560565576361e+00 4.5019513128725777e+00 -3.7484549011970303e-16 4.5019513128725777e+00 6.8680000007579229e+00 -4.1912045491674314e-16 -3.7484549011970303e-16 -4.1912045491674314e-16 9.9999999999999201e-01  3.6612307435785825e+00 4.4985893470243541e+00 -4.2857402994211905e-16 4.4985893470243541e+00 6.8647898152598783e+00 -5.3071185976242562e-16 -4.2857402994211905e-16 -5.3071185976242562e-16 1.0000000000000260e+00  3.6597990340836724e+00 4.4937609427198391e+00 -1.9782741884748973e-15 4.4937609427198391e+00 6.8602837617792147e+00 -1.6801061410435430e-15 -1.9782741884748973e-15 -1.6801061410435426e-15 9.9999999999999023e-01  2.8391834267627210e+00 4.0705951466846022e+00 -4.5989863208509948e-15 4.0705951466846022e+00 7.5402970596759120e+00 -7.0916392622950050e-15 -4.5989863208510035e-15 -7.0916392622950010e-15 9.9999999999998901e-01  2.7076602110259835e+00 4.6736705085575121e+00 1.8185663694706969e-16 4.6736705085575121e+00 8.0227694861603958e+00 2.3892610119588950e-16 1.8185663694706969e-16 2.3892610119588950e-16 1.0000000000000249e+00  3.4886187052749049e+00 5.5291776363775176e+00 -1.0542500684035942e-16 5.5291776363775176e+00 9.8738238259337212e+00 -2.8166793238460047e-16 -1.0542500684035945e-16 -2.8166793238460042e-16 9.9999999999999323e-01  2.8420047332657412e+00 -4.0754767881194036e+00 5.7277168352166816e-15 -4.0754767881194036e+00 7.5479599744776271e+00 -8.2300515616396855e-15 5.7277168352166793e-15 -8.2300515616396855e-15 9.9999999999999556e-01  3.8537197887541694e+00 -6.6217926214270673e+00 1.3451910749483639e-16 -6.6217926214270673e+00 1.2075577283085456e+01 -2.2204509996658994e-16 1.3451910749483639e-16 -2.2204509996658994e-16 1.0000000000000304e+00  3.4886187052748934e+00 -5.5291776363775167e+00 -9.5369341128591200e-16 -5.5291776363775167e+00 9.8738238259337230e+00 1.7652306548969625e-15 -9.5369341128591181e-16 1.7652306548969625e-15 9.9999999999999212e-01  3.6597990340836470e+00 -4.4937609427198248e+00 -2.9918369423747639e-15 -4.4937609427198248e+00 6.8602837617792476e+00 3.3129440251030341e-15 -2.9918369423747639e-15 3.3129440251030322e-15 9.9999999999999389e-01  3.6591064441229397e+00 -4.4908316809027999e+00 1.3281963945109076e-15 -4.4908316809027999e+00 6.8571124679209570e+00 -8.0403621177256448e-16 1.3281963945109076e-15 -8.0403621177256448e-16 1.0000000000000244e+00  3.6624074397435629e+00 -4.4994234282157164e+00 -1.5344774286722346e-15 -4.4994234282157164e+00 6.8712171317712833e+00 2.4007274175825783e-15 -1.5344774286722346e-15 2.4007274175825783e-15 1.0000000000000289e+00  3.5961483597735895e+00 -4.5113783478390790e+00 5.0668181999353464e-16 -4.5113783478390790e+00 6.8873437015012682e+00 1.4493894928255555e-16 5.0668181999353464e-16 1.4493894928255562e-16 1.0000000000000286e+00  9.7532991282799166e+00 2.1981807527583636e-01 1.6952734631488657e-15 2.1981807527583636e-01 -2.2708482072027319e-01 -4.5677019214446478e-17 1.6952734631488651e-15 -4.5677019214446497e-17 1.0000000000000280e+00  9.9211577435213680e+00 -1.1828944623843582e-01 -1.8019269277744153e-17 -1.1828944623843582e-01 4.1570688429654840e-01 1.0667833362776677e-16 -1.8019269277744153e-17 1.0667833362776677e-16 1.0000000000000282e+00  9.9009375952198688e+00 7.8698904897471084e-11 4.1463238866771727e-15 7.8698904897471084e-11 4.8902711252350584e-01 -1.2932655373468772e-16 4.1463238866771727e-15 -1.2932655373468772e-16 9.9999999999999434e-01  5.6596523477348120e+00 -4.9797062233113154e+00 1.2226468813802670e-15 -4.9797062233113154e+00 4.9603778170109596e+00 -1.0468009966160127e-15 1.2226468813802670e-15 -1.0468009966160125e-15 9.9999999999999289e-01  7.6639887838585645e+00 -4.1919059869652484e+00 2.1728113167854794e-16 -4.1919059869652484e+00 2.8171717082371561e+00 -5.4391292777625805e-17 2.1728113167854802e-16 -5.4391292777625849e-17 1.0000000000000273e+00  9.2360009805966072e+00 -2.6799437118505551e+00 -1.2507380269542162e-15 -2.6799437118505551e+00 1.2406613295694899e+00 5.8788853685340921e-16 -1.2507380269542166e-15 5.8788853685340921e-16 9.9999999999999201e-01  9.2351715235630127e+00 2.6747113490089189e+00 3.7928083549270553e-15 2.6747113490089189e+00 1.2376349960114630e+00 9.6664980329118398e-16 3.7928083549270545e-15 9.6664980329118496e-16 9.9999999999999545e-01  7.6557152997318818e+00 4.1849514167963511e+00 -4.6273016357058680e-16 4.1849514167963511e+00 2.8258346029002461e+00 -3.6657223519613409e-16 -4.6273016357058680e-16 -3.6657223519613409e-16 1.0000000000000273e+00  5.5603955775012341e+00 4.8020554807625428e+00 -1.0514943470465634e-15 4.8020554807625428e+00 4.9162667326649014e+00 -8.2968713803936442e-16 -1.0514943470465636e-15 -8.2968713803936481e-16 9.9999999999999367e-01  1.3495320478108846e+01 7.1796109310431585e-04 3.9557471533232250e-15 7.1796109310431585e-04 2.9505624847246653e-01 -4.8009255045838484e-17 3.9557471533232266e-15 -4.8009255045838588e-17 9.9999999999999400e-01  9.7992206432928270e+00 1.8594085136352023e-02 -2.0698791389537572e-15 1.8594085136352023e-02 4.6016191093740616e-01 -2.5223786687925504e-16 -2.0698791389537576e-15 -2.5223786687925499e-16 1.0000000000000295e+00  1.0285248713396863e+01 1.5271957825752218e-02 5.7891112030765661e-16 1.5271957825752218e-02 3.3011171468564537e-01 -1.5860753338629916e-16 5.7891112030765651e-16 -1.5860753338629916e-16 1.0000000000000269e+00  1.7022648432916636e+00 2.25519029291