<?xml version="1.0"?>
<VTKFile type="UnstructuredGrid"  version="0.1"  >
<UnstructuredGrid>
<Piece  NumberOfPoints="3507" NumberOfCells="31293">
<Points>
<DataArray  type="Float64"  NumberOfComponents="3"  format="ascii">-0.4000000000000015 -0.8660254037844385 1.5  0.4000000000000026 -0.8660254037844389 1.5  -0.4000000000000015 -0.8660254037844385 0.5  0.4000000000000004 -0.8660254037844389 0.5  0.04999999999999994 -0.08660254037844391 1.95  0.4552786404500036 -0.7885657368602906 1.544721359549996  -0.4552786404500042 -0.7885657368602893 1.544721359549996  -0.05000000000000005 -0.08660254037844385 1.95  -0.5499999999999998 -0.7794228634059955 1.5  -0.5500000000000003 -0.7794228634059946 0.5  0.4552786404500041 -0.7885657368602915 0.4552786404500047  -0.4552786404500051 -0.7885657368602909 0.4552786404500047  -0.05000000000000066 -0.08660254037844495 0.0500000000000006  0.04999999999999966 -0.08660254037844339 0.04999999999999971  0.5499999999999989 -0.7794228634059961 1.5  0.5499999999999989 -0.7794228634059961 0.5  0.09999999999999998 -1.224606353822377e-17 1.95  0.9105572809000075 0 1.544721359549996  0.9499999999999994 -0.08660254037844484 1.5  -0.9500000000000006 -0.0866025403784426 1.5  -0.9105572809000075 3.032764975485794e-16 1.544721359549996  -0.1 3.33066907387547e-17 1.95  0.05000000000000001 0.08660254037844388 1.95  -0.04999999999999998 0.08660254037844388 1.95  0.1 -1.224606353822377e-17 0.05000000000000002  -0.1000000000000001 3.330669073875473e-17 0.05000000000000004  -0.05000000000000004 0.08660254037844395 0.05000000000000004  0.04999999999999993 0.08660254037844373 0.04999999999999993  -0.9500000000000006 -0.0866025403784426 0.5  -0.9105572809000093 3.0327649754858e-16 0.4552786404500047  0.9105572809000093 0 0.4552786404500047  0.9500000000000005 -0.08660254037844295 0.5  0.4552786404500038 0.7885657368602895 1.544721359549996  0.5499999999999989 0.7794228634059965 1.5  0.9500000000000005 0.08660254037844292 1.5  -0.9500000000000006 0.08660254037844317 1.5  -0.455278640450005 0.7885657368602921 1.544721359549995  -0.5499999999999993 0.7794228634059959 1.5  0.4000000000000012 0.8660254037844386 1.5  -0.400000000000003 0.8660254037844387 1.5  -0.9499999999999984 0.08660254037844706 0.5  -0.5500000000000004 0.779422863405994 0.5  -0.4552786404500035 0.7885657368602895 0.4552786404500037  0.399999999999999 0.8660254037844386 0.5  0.4552786404500037 0.7885657368602894 0.4552786404500037  -0.3999999999999986 0.8660254037844387 0.5  0.9500000000000005 0.08660254037844292 0.5  0.5499999999999995 0.7794228634059955 0.5  -0.1333333333333335 -0.8660254037844386 1.5  0.1333333333333345 -0.8660254037844388 1.5  -0.4000000000000005 -0.8660254037844384 0.5526315789473684  -0.4000000000000005 -0.8660254037844384 0.6052631578947368  -0.4000000000000005 -0.8660254037844384 0.6578947368421053  -0.4000000000000005 -0.8660254037844384 0.7105263157894737  -0.4000000000000005 -0.8660254037844384 0.763157894736842  -0.4000000000000005 -0.8660254037844384 0.8157894736842105  -0.4000000000000005 -0.8660254037844384 0.868421052631579  -0.4000000000000005 -0.8660254037844384 0.9210526315789473  -0.4000000000000005 -0.8660254037844384 0.9736842105263157  -0.4000000000000005 -0.8660254037844384 1.026315789473684  -0.4000000000000005 -0.8660254037844384 1.078947368421053  -0.4000000000000005 -0.8660254037844384 1.131578947368421  -0.4000000000000005 -0.8660254037844384 1.184210526315789  -0.4000000000000005 -0.8660254037844384 1.236842105263158  -0.4000000000000005 -0.8660254037844384 1.289473684210526  -0.4000000000000005 -0.8660254037844384 1.342105263157895  -0.4000000000000005 -0.8660254037844384 1.394736842105263  -0.4000000000000005 -0.8660254037844384 1.447368421052631  -0.1333333333333345 -0.8660254037844386 0.5  0.133333333333333 -0.8660254037844388 0.5  0.3999999999999994 -0.8660254037844388 0.5526315789473684  0.3999999999999994 -0.8660254037844388 0.6052631578947368  0.3999999999999994 -0.8660254037844388 0.6578947368421053  0.3999999999999994 -0.8660254037844388 0.7105263157894737  0.3999999999999994 -0.8660254037844388 0.763157894736842  0.3999999999999994 -0.8660254037844388 0.8157894736842105  0.3999999999999994 -0.8660254037844388 0.868421052631579  0.3999999999999994 -0.8660254037844388 0.9210526315789473  0.3999999999999994 -0.8660254037844388 0.9736842105263157  0.3999999999999994 -0.8660254037844388 1.026315789473684  0.3999999999999994 -0.8660254037844388 1.078947368421053  0.3999999999999994 -0.8660254037844388 1.131578947368421  0.3999999999999994 -0.8660254037844388 1.184210526315789  0.3999999999999994 -0.8660254037844388 1.236842105263158  0.3999999999999994 -0.8660254037844388 1.289473684210526  0.3999999999999994 -0.8660254037844388 1.342105263157895  0.3999999999999994 -0.8660254037844388 1.394736842105263  0.3999999999999994 -0.8660254037844388 1.447368421052631  0.185092880150001 -0.3205902725390592 1.814907119849999  0.320185760300002 -0.5545780046996744 1.679814239699998  0.4325391074516465 -0.8020975461444813 1.536908765817145  0.4149349191647954 -0.8204957539189375 1.526286555605956  0.4038061642216076 -0.8423598281802021 1.513663326445633  -0.4038061642216086 -0.8423598281802018 1.513663326445633  -0.4149349191647963 -0.820495753918937 1.526286555605956  -0.4325391074516474 -0.8020975461444807 1.536908765817145  -0.1850928801500013 -0.3205902725390588 1.814907119849999  -0.3201857603000025 -0.5545780046996736 1.679814239699998  -0.02614428534733455 -0.09652189566972433 1.944273057552391  -7.608006934253821e-17 -0.1 1.942264973081037  0.02614428534733436 -0.09652189566972438 1.944273057552391  -0.402695512942018 -0.8429638167101945 1.5  -0.4106367359676591 -0.8211454857643924 1.5  -0.4233955556881024 -0.8017466428157847 1.5  -0.4402841408297215 -0.7858130845089342 1.5  -0.4603920233960844 -0.7742037930964111 1.5  -0.4826351822333071 -0.7675446284832176 1.5  -0.5058144828910478 -0.7661945879573115 1.5  -0.5286803232711094 -0.7702264525528895 1.5  -0.5500000000000005 -0.7794228634059945 0.5526315789473684  -0.5500000000000005 -0.7794228634059945 0.6052631578947368  -0.5500000000000005 -0.7794228634059945 0.6578947368421053  -0.5500000000000005 -0.7794228634059945 0.7105263157894737  -0.5500000000000005 -0.7794228634059945 0.763157894736842  -0.5500000000000005 -0.7794228634059945 0.8157894736842105  -0.5500000000000005 -0.7794228634059945 0.868421052631579  -0.5500000000000005 -0.7794228634059945 0.9210526315789473  -0.5500000000000005 -0.7794228634059945 0.9736842105263157  -0.5500000000000005 -0.7794228634059945 1.026315789473684  -0.5500000000000005 -0.7794228634059945 1.078947368421053  -0.5500000000000005 -0.7794228634059945 1.131578947368421  -0.5500000000000005 -0.7794228634059945 1.184210526315789  -0.5500000000000005 -0.7794228634059945 1.236842105263158  -0.5500000000000005 -0.7794228634059945 1.289473684210526  -0.5500000000000005 -0.7794228634059945 1.342105263157895  -0.5500000000000005 -0.7794228634059945 1.394736842105263  -0.5500000000000005 -0.7794228634059945 1.447368421052631  -0.402695512942018 -0.8429638167101945 0.5  -0.4106367359676591 -0.8211454857643923 0.5  -0.4233955556881025 -0.8017466428157846 0.5  -0.4402841408297216 -0.7858130845089342 0.5  -0.4603920233960845 -0.7742037930964111 0.5  -0.4826351822333072 -0.7675446284832176 0.5  -0.5058144828910479 -0.7661945879573115 0.5  -0.5286803232711095 -0.7702264525528895 0.5  0.4325391074516465 -0.8020975461444814 0.4630912341828544  0.4149349191647954 -0.8204957539189375 0.4737134443940433  0.4038061642216076 -0.8423598281802021 0.4863366735543664  -0.4038061642216086 -0.8423598281802018 0.4863366735543665  -0.4149349191647963 -0.8204957539189371 0.4737134443940434  -0.4325391074516474 -0.8020975461444808 0.4630912341828544  -0.3201857603000038 -0.554578004699676 0.3201857603000036  -0.1850928801500026 -0.320590272539061 0.1850928801500024  -0.02614428534733435 -0.0965218956697244 0.05572694244760847  8.842860173584666e-19 -0.1 0.05773502691896269  0.02614428534733444 -0.09652189566972436 0.05572694244760843  0.3201857603000029 -0.554578004699676 0.3201857603000033  0.1850928801500018 -0.3205902725390605 0.185092880150002  0.5286803232711085 -0.7702264525528901 1.5  0.5058144828910471 -0.7661945879573122 1.5  0.4826351822333065 -0.7675446284832182 1.5  0.4603920233960839 -0.7742037930964115 1.5  0.4402841408297209 -0.7858130845089345 1.5  0.4233955556881017 -0.8017466428157849 1.5  0.4106367359676582 -0.8211454857643927 1.5  0.402695512942017 -0.8429638167101949 1.5  0.5286803232711085 -0.7702264525528901 0.5  0.5058144828910471 -0.7661945879573122 0.5  0.4826351822333065 -0.7675446284832182 0.5  0.4603920233960839 -0.7742037930964115 0.5  0.4402841408297209 -0.7858130845089345 0.5  0.4233955556881017 -0.8017466428157849 0.5  0.4106367359676582 -0.8211454857643927 0.5  0.402695512942017 -0.8429638167101949 0.5  0.5499999999999993 -0.7794228634059951 0.5526315789473684  0.5499999999999993 -0.7794228634059951 0.6052631578947368  0.5499999999999993 -0.7794228634059951 0.6578947368421053  0.5499999999999993 -0.7794228634059951 0.7105263157894737  0.5499999999999993 -0.7794228634059951 0.763157894736842  0.5499999999999993 -0.7794228634059951 0.8157894736842105  0.5499999999999993 -0.7794228634059951 0.868421052631579  0.5499999999999993 -0.7794228634059951 0.9210526315789473  0.5499999999999993 -0.7794228634059951 0.9736842105263157  0.5499999999999993 -0.7794228634059951 1.026315789473684  0.5499999999999993 -0.7794228634059951 1.078947368421053  0.5499999999999993 -0.7794228634059951 1.131578947368421  0.5499999999999993 -0.7794228634059951 1.184210526315789  0.5499999999999993 -0.7794228634059951 1.236842105263158  0.5499999999999993 -0.7794228634059951 1.289473684210526  0.5499999999999993 -0.7794228634059951 1.342105263157895  0.5499999999999993 -0.7794228634059951 1.394736842105263  0.5499999999999993 -0.7794228634059951 1.447368421052631  0.3701857603000022 0 1.814907119849999  0.6403715206000045 0 1.67981423969
[...]
<CellData  Scalars="f">
<DataArray  type="Float64"  Name="f"  format="ascii">16 16 16 15 15 18446744073709551615 18446744073709551615 15 18446744073709551615 16 18446744073709551615 16 16 15 15 18446744073709551615 15 18446744073709551615 16 15 16 16 18446744073709551615 15 18446744073709551615 15 18446744073709551615 18446744073709551615 18446744073709551615 18446744073709551615 16 16 16 15 15 18446744073709551615 18446744073709551615 15 18446744073709551615 16 16 18446744073709551615 16 14 18446744073709551615 16 14 18446744073709551615 18446744073709551615 18446744073709551615 18446744073709551615 14 18446744073709551615 18446744073709551615 18446744073709551615 18446744073709551615 16 16 18446744073709551615 15 18446744073709551615 15 18446744073709551615 18446744073709551615 16 15 18446744073709551615 16 18446744073709551615 15 18446744073709551615 18446744073709551615 16 16 16 14 16 14 18446744073709551615 18446744073709551615 18446744073709551615 15 15 18446744073709551615 15 16 16 18446744073709551615 16 18446744073709551615 18446744073709551615 18446744073709551615 18446744073709551615 15 16 15 15 18446744073709551615 16 16 18446744073709551615 18446744073709551615 18446744073709551615 18446744073709551615 18446744073709551615 16 15 18446744073709551615 16 18446744073709551615 15 18446744073709551615 18446744073709551615 16 15 18446744073709551615 16 18446744073709551615 15 18446744073709551615 18446744073709551615 16 16 18446744073709551615 16 14 18446744073709551615 14 16 18446744073709551615 18446744073709551615 18446744073709551615 18446744073709551615 16 14 16 16 14 16 18446744073709551615 18446744073709551615 18446744073709551615 14 18446744073709551615 18446744073709551615 15 15 18446744073709551615 15 16 16 16 18446744073709551615 15 15 18446744073709551615 15 16 16 18446744073709551615 16 18446744073709551615 18446744073709551615 18446744073709551615 18446744073709551615 18446744073709551615 16 16 16 14 14 16 18446744073709551615 14 14 18446744073709551615 18446744073709551615 18446744073709551615 16 16 18446744073709551615 15 18446744073709551615 18446744073709551615 15 18446744073709551615 18446744073709551615 18446744073709551615 18446744073709551615 16 15 18446744073709551615 16 18446744073709551615 16 15 15 18446744073709551615 16 18446744073709551615 18446744073709551615 18446744073709551615 18446744073709551615 16 16 18446744073709551615 15 18446744073709551615 16 15 15 18446744073709551615 18446744073709551615 18446744073709551615 18446744073709551615 16 15 18446744073709551615 16 18446744073709551615 15 18446744073709551615 18446744073709551615 16 16 18446744073709551615 16 14 14 16 18446744073709551615 18446744073709551615 14 18446744073709551615 18446744073709551615 18446744073709551615 18446744073709551615 14 16 14 16 16 16 18446744073709551615 14 18446744073709551615 18446744073709551615 18446744073709551615 18446744073709551615 18446744073709551615 18446744073709551615 14 16 14 16 16 16 18446744073709551615 18446744073709551615 18446744073709551615 18446744073709551615 14 14 18446744073709551615 18446744073709551615 14 16 14 16 16 16 18446744073709551615 18446744073709551615 14 16 14 16 16 16 14 18446744073709551615 18446744073709551615 18446744073709551615 18446744073709551615 14 16 14 16 16 16 18446744073709551615 18446744073709551615 18446744073709551615 14 16 14 16 16 16 18446744073709551615 18446744073709551615 18446744073709551615 16 15 16 16 18446744073709551615 15 18446744073709551615 15 18446744073709551615 18446744073709551615 18446744073709551615 18446744073709551615 16 15 18446744073709551615 16 18446744073709551615 15 18446744073709551615 18446744073709551615 16 15 18446744073709551615 16 18446744073709551615 15 18446744073709551615 18446744073709551615 16 15 18446744073709551615 16 18446744073709551615 16 15 18446744073709551615 15 18446744073709551615 18446744073709551615 18446744073709551615 16 16 18446744073709551615 15 18446744073709551615 15 18446744073709551615 18446744073709551615 16 15 18446744073709551615 16 18446744073709551615 18446744073709551615 15 18446744073709551615 16 15 18446744073709551615 18446744073709551615 16 16 15 18446744073709551615 15 18446744073709551615 15 16 18446744073709551615 15 16 18446744073709551615 15 18446744073709551615 16 15 16 18446744073709551615 16 16 18446744073709551615 15 18446744073709551615 15 18446744073709551615 18446744073709551615 16 15 18446744073709551615 16 18446744073709551615 15 16 15 18446744073709551615 16 15 18446744073709551615 16 18446744073709551615 15 18446744073709551615 16 15 18446744073709551615 18446744073709551615 18446744073709551615 16 15 18446744073709551615 16 18446744073709551615 15 18446744073709551615 16 15 18446744073709551615 18446744073709551615 18446744073709551615 16 15 18446744073709551615 16 18446744073709551615 15 16 15 18446744073709551615 18446744073709551615 18446744073709551615 18446744073709551615 16 16 18446744073709551615 15 18446744073709551615 16 15 15 18446744073709551615 18446744073709551615 18446744073709551615 18446744073709551615 16 15 18446744073709551615 16 18446744073709551615 15 18446744073709551615 18446744073709551615 16 15 18446744073709551615 16 18446744073709551615 16 15 18446744073709551615 15 18446744073709551615 18446744073709551615 18446744073709551615 16 15 18446744073709551615 16 18446744073709551615 15 18446744073709551615 18446744073709551615 16 15 18446744073709551615 16 16 15 18446744073709551615 15 18446744073709551615 16 15 18446744073709551615 16 15 18446744073709551615 15 16 18446744073709551615 16 15 18446744073709551615 16 18446744073709551615 16 15 15 18446744073709551615 18446744073709551615 18446744073709551615 18446744073709551615 16 16 18446744073709551615 18446744073709551615 16 16 18446744073709551615 18446744073709551615 16 18446744073709551615 16 18446744073709551615 18446744073709551615 18446744073709551615 18446744073709551615 16 18446744073709551615 18446744073709551615 18446744073709551615 18446744073709551615 18446744073709551615 18446744073709551615 18446744073709551615 16 18446744073709551615 18446744073709551615 18446744073709551615 16 18446744073709551615 16 18446744073709551615 16 16 18446744073709551615 18446744073709551615 18446744073709551615 18446744073709551615 16 18446744073709551615 18446744073709551615 18446744073709551615 18446744073709551615 16 15 18446744073709551615 18446744073709551615 18446744073709551615 15 15 16 15 18446744073709551615 18446744073709551615 15 16 15 16 18446744073709551615 18446744073709551615 18446744073709551615 15 16 15 16 18446744073709551615 18446744073709551615 18446744073709551615 18446744073709551615 15 18446744073709551615 18446744073709551615 16 15 16 18446744073709551615 18446744073709551615 18446744073709551615 15 16 15 16 18446744073709551615 18446744073709551615 18446744073709551615 18446744073709551615 15 18446744073709551615 18446744073709551615 16 15 16 18446744073709551615 18446744073709551615 18446744073709551615 15 16 15 16 18446744073709551615 18446744073709551615 18446744073709551615 15 16 15 16 18446744073709551615 18446744073709551615 18446744073709551615 18446744073709551615 15 18446744073709551615 18446744073709551615 16 15 16 18446744073709551615 18446744073709551615 18446744073709551615 15 16 15 16 18446744073709551615 18446744073709551615 18446744073709551615 18446744073709551615 15 18446744073709551615 18446744073709551615 16 15 16 18446744073709551615 18446744073709551615 18446744073709551615 15 16 15 16 18446744073709551615 18446744073709551615 18446744073709551615 15 16 15 16 18446744073709551615 18446744073709551615 18446744073709551615 15 16 15 16 18446744073709551615 18446744073709551615 18446744073709551615 15 16 15 16 18446744073709551615 18446744073709551615 18446744073709551615 15 16 15 16 18446744073709551615 18446744073709551615 18446744073709551615 15 18446744073709551615 18446744073709551615 18446744073709551615 15 15 16 16 16 18446744073709551615 16 18446744073709551615 16 18446744073709551615 18446744073709551615 18446744073709551615 16 18446744073709551615 18446744073709551615 18446744073709551615 16 18446744073709551615 18446744073709551615 18446744073709551615 18446744073709551615 18446744073709551615 18446744073709551615 18446744073709551615 16 18446744073709551615 16 18446744073709551615 16 16 18446744073709551615 18446744073709551615 18446744073709551615 18446744073709551615 18446744073709551615 16 18446744073709551615 18446744073709551615 18446744073709551615 18446744073709551615 16 18446744073709551615 18446744073709551615 18446744073709551615 18446744073709551615 18446744073709551615 18446744073709551615 18446744073709551615 18446744073709551615 18446744073709551615 18446744073709551615 16 15 18446744073709551615 18446744073709551615 18446744073709551615 15 15 16 15 16 18446744073709551615 18446744073709551615 18446744073709551615 15 16 15 16 18446744073709551615 18446744073709551615 18446744073709551615 15 16 15 16 18446744073709551615 18446744073709551615 18446744073709551615 15 16 15 16 18446744073709551615 18446744073709551615 18446744073709551615 15 16 15 16 18446744073709551615 18446744073709551615 18446744073709551615 15 16 15 16 18446744073709551615 18446744073709551615 18446744073709551615 15 16 15 16 18446744073709551615 18446744073709551615 18446744073709551615 15 16 15 16 18446744073709551615 18446744073709551615 18446744073709551615 18446744073709551615 15 18446744073709551615 18446744073709551615 16 15 16 18446744073709551615 18446744073709551615 18446744073709551615 15 16 15 16 18446744073709551615 18446744073709551615 18446744073709551615 15 16 15 16 18446744073709551615 18446744073709551615 18446744073709551615 15 16 15 16 18446744073709551615 18446744073709551615 18446744073709551615 15 16 15 16 18446744073709551615 18446744073709551615 18446744073709551615 15 16 15 16 18446744073709551615 18446744073709551615 18446744073709551615 15 16 15 16 18446744073709551615 18446744073709551615 18446744073709551615 15 16 15 18446744073709551615 18446744073709551615 15 18446744073709551615 18446744073709551615 18446744073709551615 15 15 16 16 16 18446744073709551615 18446744073709551615 18446744073709551615 18446744073709551615 18446744073709551615 18446744073709551615 16 18446744073709551615 18446744073709551615 18446744073709551615 18446744073709551615 18446744073709551615 18446744073709551615 18446744073709551615 18446744073709551615 18446744073709551615 18446744073709551615 18446744073709551615 16 18446744073709551615 16 18446744073709551615 16 18446744073709551615 18446744073709551615 18446744073709551615 18446744073709551615 18446744073709551615 18446744073709551615 16 18446744073709551615 18446744073709551615 18446744073709551615 18446744073709551615 18446744073709551615 18446744073709551615 18446744073709551615 18446744073709551615 18446744073709551615 18446744073709551615 18446744073709551615 16 15 18446744073709551615 18446744073709551615 18446744073709551615 15 18446744073709551615 18446744073709551615 18446744073709551615 18446744073709551615 15 16 15 15 18446744073709551615 18446744073709551615 18446744073709551615 18446744073709551615 18446744073709551615 15 18446744073709551615 18446744073709551615 15 16 18446744073709551615 15 18446744073709551615 18446744073709551615 18446744073709551615 18446744073709551615 18446744073709551615 18446744073709551615 18446744073709551615 18446744073709551615 18446744073709551615 16 15 18446744073709551615 15 18446744073709551615 15 18446744073709551615 18446744073709551615 18446744073709551615 16 18446744073709551615 18446744073709551615 15 18446744073709551615 18446744073709551615 16 16 16 18446744073709551615 18446744073709551615 18446744073709551615 18446744073709551615 18446744073709551615 18446744073709551615 18446744073709551615 16 18446744073709551615 18446744073709551615 18446744073709551615 18446744073709551615 18446744073709551615 18446744073709551615 18446744073709551615 18446744073709551615 18446744073709551615 18446744073709551615 18446744073709551615 18446744073709551615 18446744073709551615 18446744073709551615 18446744073709551615 18446744073709551615 18446744073709551615 16 18446744073709551615 16 18446744073709551615 18446744073709551615 18446744073709551615 18446744073709551615 18446744073709551615 18446744073709551615 16 18446744073709551615 18446744073709551615 18446744073709551615 18446744073709551615 18446744073709551615 18446744073709551615 18446744073709551615 18446744073709551615 18446744073709551615 18446744073709551615 18446744073709551615 18446744073709551615 18446744073709551615 18446744073709551615 18446744073709551615 18446744073709551615 18446744073709551615 18446744073709551615 18446744073709551615 18446744073709551615 16 14 18446744073709551615 18446744073709551615 18446744073709551615 14 14 16 14 18446744073709551615 18446744073709551615 18446744073709551615 14 18446744073709551615 18446744073709551615 18446744073709551615 14 18446744073709551615 18446744073709551615 15 18446744073709551615 18446744073709551615 18446744073709551615 18446744073709551615 15 18446744073709551615 15 18446744073709551615 18446744073709551615 18446744073709551615 18446744073709551615 15 15 18446744073709551615 15 18446744073709551615 18446744073709551615 18446744073709551615 15 15 18446744073709551615 15 18446744073709551615 18446744073709551615 15 18446744073709551615 18446744073709551615 15 15 18446744073709551615 15 18446744073709551615 18446744073709551615 18446744073709551615 15 18446744073709551615 18446744073709551615 18446744073709551615 18446744073709551615 15 15 18446744073709551615 15 18446744073709551615 15 18446744073709551615 18446744073709551615 18446744073709551615 18446744073709551615 18446744073709551615 18446744073709551615 15 15 18446744073709551615 15 18446744073709551615 18446744073709551615 15 18446744073709551615 18446744073709551615 18446744073709551615 18446744073709551615 15 16 15 18446744073709551615 15 18446744073709551615 18446744073709551615 15 16 15 18446744073709551615 18446744073709551615 18446744073709551615 16 15 16 15 18446744073709551615 18446744073709551615 18446744073709551615 16 15 16 15 18446744073709551615 18446744073709551615 18446744073709551615 16 15 16 15 18446744073709551615 18446744073709551615 18446744073709551615 16 15 16 15 18446744073709551615 18446744073709551615 18446744073709551615 16 15 16 15 18446744073709551615 18446744073709551615 18446744073709551615 18446744073709551615 16 18446744073709551615 18446744073709551615 15 16 15 18446744073709551615 18446744073709551615 18446744073709551615 16 15 16 15 18446744073709551615 18446744073709551615 18446744073709551615 16 15 16 15 18446744073709551615 18446744073709551615 18446744073709551615 16 15 16 15 18446744073709551615 18446744073709551615 18446744073709551615 16 15 16 15 18446744073709551615 18446744073709551615 18446744073709551615 16 15 16 15 18446744073709551615 18446744073709551615 18446744073709551615 16 15 16 15 18446744073709551615 18446744073709551615 18446744073709551615 16 15 16 15 18446744073709551615 18446744073709551615 18446744073709551615 16 15 16 15 18446744073709551615 18446744073709551615 18446744073709551615 16 15 16 15 18446744073709551615 18446744073709551615 18446744073709551615 16 15 18446744073709551615 15 18446744073709551615 18446744073709551615 15 15 18446744073709551615 18446744073709551615 18446744073709551615 18446744073709551615 18446744073709551615 15 15 18446744073709551615 15 18446744073709551615 18446744073709551615 18446744073709551615 15 18446744073709551615 18446744073709551615 18446744073709551615 18446744073709551615 15 15 18446744073709551615 15 18446744073709551615 15 18446744073709551615 18446744073709551615 18446744073709551615 15 15 18446744073709551615 15 18446744073709551615 18446744073709551615 15 18446744073709551615 18446744073709551615 15 15 18446744073709551615 15 18446744073709551615 18446744073709551615 18446744073709551615 15 18446744073709551615 18446744073709551615 18446744073709551615 18446744073709551615 15 15 18446744073709551615 15 18446744073709551615 15 18446744073709551615 18446744073709551615 18446744073709551615 15 15 18446744073709551615 15 18446744073709551615 18446744073709551615 18446744073709551615 15 18446744073709551615 18446744073709551615 18446744073709551615 18446744073709551615 18446744073709551615 18446744073709551615 16 15 18446744073709551615 16 18446744073709551615 18446744073709551615 18446744073709551615 15 18446744073709551615 18446744073709551615 18446744073709551615 18446744073709551615 15 16 18446744073709551615 15 15 18446744073709551615 18446744073709551615 18446744073709551615 18446744073709551615 15 18446744073709551615 18446744073709551615 18446744073709551615 18446744073709551615 18446744073709551615 18446744073709551615 18446744073709551615 18446744073709551615 16 18446744073709551615 18446744073709551615 16 15 18446744073709551615 18446744073709551615 18446744073709551615 18446744073709551615 18446744073709551615 16 18446744073709551615 18446744073709551615 15 18446744073709551615 18446744073709551615 16 16 16 18446744073709551615 18446744073709551615 16 18446744073709551615 18446744073709551615 18446744073709551615 18446744073709551615 18446744073709551615 16 18446744073709551615 18446744073709551615 18446744073709551615 18446744073709551615 18446744073709551615 18446744073709551615 18446744073709551615 18446744073709551615 16 18446744073709551615 18446744073709551615 18446744073709551615 18446744073709551615 18446744073709551615 16 18446744073709551615 18446744073709551615 18446744073709551615 18446744073709551615 18446744073709551615 18446744073709551615 18446744073709551615 18446744073709551615 18446744073709551615 16 14 18446744073709551615 18446744073709551615 18446744073709551615 14 18446744073709551615 14 18446744073709551615 16 14 18446744073709551615 18446744073709551615 14 18446744073709551615 18446744073709551615 14 16 16 16 18446744073709551615 16 18446744073709551615 18446744073709551615 18446744073709551615 18446744073709551615 18446744073709551615 16 18446744073709551615 18446744073709551615 18446744073709551615 18446744073709551615 18446744073709551615 18446744073709551615 18446744073709551615 18446744073709551615 18446744073709551615 18446744073709551615 18446744073709551615 18446744073709551615 18446744073709551615 18446744073709551615 16 18446744073709551615 18446744073709551615 18446744073709551615 18446744073709551615 18446744073709551615 18446744073709551615 16 18446744073709551615 18446744073709551615 18446744073709551615 18446744073709551615 18446744073709551615 18446744073709551615 18446744073709551615 18446744073709551615 18446744073709551615 15 15 18446744073709551615 18446744073709551615 18446744073709551615 18446744073709551615 18446744073709551615 18446744073709551615 18446744073709551615 18446744073709551615 15 15 18446744073709551615 15 18446744073709551615 18446744073709551615 15 18446744073709551615 18446744073709551615 15 15 18446744073709551615 18446744073709551615 18446744073709551615 15 18446744073709551615 15 18446744073709551615 18446744073709551615 18446744073709551615 18446744073709551615 18446744073709551615 18446744073709551615 18446744073709551615 18446744073709551615 18446744073709551615 18446744073709551615 18446744073709551615 18446744073709551615 18446744073709551615 15 15 18446744073709551615 15 18446744073709551615 18446744073709551615 18446744073709551615 15 18446744073709551615 18446744073709551615 18446744073709551615 15 15 18446744073709551615 15 18446744073709551615 18446744073709551615 18446744073709551615 15 18446744073709551615 18446744073709551615 18446744073709551615 18446744073709551615 15 18446744073709551615 15 18446744073709551615 18446744073709551615 18446744073709551615 18446744073709551615 15 18446744073709551615 18446744073709551615 18446744073709551615 15 18446744073709551615 18446744073709551615 18446744073709551615 18446744073709551615 18446744073709551615 18446744073709551615 18446744073709551615 184467